Generic title t= 3100.00000 step= 1550000
 8148
    1C5    HO5'    1   1.788   1.723   1.699
    1C5     O5'    2   1.780   1.817   1.682
    1C5     C5'    3   1.733   1.834   1.548
    1C5     H5'    4   1.762   1.759   1.475
    1C5    H5''    5   1.786   1.918   1.503
    1C5     C4'    6   1.584   1.859   1.548
    1C5     H4'    7   1.573   1.880   1.442
    1C5     O4'    8   1.498   1.756   1.587
    1C5     C1'    9   1.377   1.808   1.632
    1C5     H1'   10   1.296   1.783   1.563
    1C5      N1   11   1.348   1.773   1.769
    1C5      C6   12   1.452   1.721   1.845
    1C5      H6   13   1.553   1.718   1.805
    1C5      C5   14   1.427   1.664   1.963
    1C5      H5   15   1.507   1.609   2.010
    1C5      C4   16   1.300   1.669   2.014
    1C5      N4   17   1.269   1.597   2.119
    1C5     H41   18   1.175   1.595   2.158
    1C5     H42   19   1.342   1.538   2.157
    1C5      N3   20   1.200   1.734   1.950
    1C5      C2   21   1.226   1.784   1.826
    1C5      O2   22   1.138   1.850   1.772
    1C5     C3'   23   1.545   1.987   1.626
    1C5     H3'   24   1.601   1.982   1.719
    1C5     C2'   25   1.393   1.968   1.619
    1C5     H2'   26   1.338   2.035   1.686
    1C5     O2'   27   1.353   2.002   1.487
    1C5    HO2'   28   1.370   2.096   1.481
    1C5     O3'   29   1.599   2.105   1.565
    2C        P   30   1.546   2.249   1.615
    2C      OP1   31   1.417   2.274   1.552
    2C      OP2   32   1.651   2.358   1.603
    2C      O5'   33   1.516   2.229   1.772
    2C      C5'   34   1.610   2.218   1.872
    2C      H5'   35   1.656   2.315   1.891
    2C     H5''   36   1.689   2.148   1.845
    2C      C4'   37   1.537   2.179   1.999
    2C      H4'   38   1.453   2.248   2.000
    2C      O4'   39   1.496   2.042   2.006
    2C      C1'   40   1.493   1.996   2.139
    2C      H1'   41   1.400   1.944   2.163
    2C       N1   42   1.610   1.902   2.145
    2C       C6   43   1.708   1.886   2.048
    2C       H6   44   1.709   1.945   1.958
    2C       C5   45   1.812   1.809   2.069
    2C       H5   46   1.891   1.800   1.995
    2C       C4   47   1.805   1.727   2.185
    2C       N4   48   1.870   1.613   2.207
    2C      H41   49   1.863   1.564   2.295
    2C      H42   50   1.920   1.580   2.126
    2C       N3   51   1.714   1.733   2.277
    2C       C2   52   1.618   1.822   2.262
    2C       O2   53   1.536   1.834   2.352
    2C      C3'   54   1.612   2.204   2.134
    2C      H3'   55   1.711   2.159   2.128
    2C      C2'   56   1.523   2.118   2.225
    2C      H2'   57   1.566   2.100   2.323
    2C      O2'   58   1.398   2.177   2.235
    2C     HO2'   59   1.409   2.249   2.298
    2C      O3'   60   1.624   2.341   2.164
    3C        P   61   1.762   2.399   2.237
    3C      OP1   62   1.760   2.547   2.257
    3C      OP2   63   1.869   2.345   2.150
    3C      O5'   64   1.768   2.313   2.372
    3C      C5'   65   1.689   2.355   2.485
    3C      H5'   66   1.587   2.351   2.447
    3C     H5''   67   1.714   2.456   2.517
    3C      C4'   68   1.696   2.254   2.599
    3C      H4'   69   1.630   2.276   2.683
    3C      O4'   70   1.667   2.123   2.552
    3C      C1'   71   1.722   2.028   2.643
    3C      H1'   72   1.644   1.985   2.706
    3C       N1   73   1.797   1.922   2.577
    3C       C6   74   1.884   1.952   2.475
    3C       H6   75   1.885   2.046   2.421
    3C       C5   76   1.962   1.858   2.425
    3C       H5   77   2.037   1.875   2.349
    3C       C4   78   1.961   1.727   2.480
    3C       N4   79   2.043   1.636   2.445
    3C      H41   80   2.036   1.548   2.493
    3C      H42   81   2.103   1.653   2.366
    3C       N3   82   1.880   1.699   2.579
    3C       C2   83   1.800   1.797   2.637
    3C       O2   84   1.724   1.768   2.732
    3C      C3'   85   1.837   2.238   2.646
    3C      H3'   86   1.912   2.218   2.569
    3C      C2'   87   1.820   2.114   2.727
    3C      H2'   88   1.918   2.065   2.733
    3C      O2'   89   1.760   2.127   2.861
    3C     HO2'   90   1.733   2.218   2.872
    3C      O3'   91   1.892   2.347   2.721
    4C3       P   92   2.045   2.355   2.758
    4C3     OP1   93   2.057   2.488   2.825
    4C3     OP2   94   2.117   2.346   2.630
    4C3     O5'   95   2.084   2.234   2.857
    4C3     C5'   96   2.068   2.243   2.995
    4C3     H5'   97   1.961   2.254   3.016
    4C3    H5''   98   2.124   2.331   3.025
    4C3     C4'   99   2.117   2.114   3.067
    4C3     H4'  100   2.086   2.124   3.171
    4C3     O4'  101   2.065   1.991   3.013
    4C3     C1'  102   2.159   1.889   3.050
    4C3     H1'  103   2.114   1.829   3.129
    4C3      N1  104   2.182   1.808   2.924
    4C3      C6  105   2.213   1.873   2.803
    4C3      H6  106   2.186   1.977   2.791
    4C3      C5  107   2.287   1.810   2.712
    4C3      H5  108   2.307   1.856   2.616
    4C3      C4  109   2.314   1.673   2.730
    4C3      N4  110   2.366   1.608   2.626
    4C3     H41  111   2.384   1.508   2.632
    4C3     H42  112   2.386   1.662   2.543
    4C3      N3  113   2.276   1.608   2.834
    4C3      C2  114   2.206   1.671   2.934
    4C3      O2  115   2.167   1.603   3.026
    4C3     C3'  116   2.271   2.106   3.063
    4C3     H3'  117   2.310   2.116   2.962
    4C3     C2'  118   2.286   1.961   3.095
    4C3     H2'  119   2.368   1.922   3.035
    4C3     O2'  120   2.296   1.931   3.237
    4C3    HO2'  121   2.385   1.953   3.266
    4C3     O3'  122   2.348   2.190   3.151
    4C3    HO3'  123   2.317   2.194   3.242
    5Na+    Na+  124   0.793   3.798   1.020
    6Na+    Na+  125   0.900   0.053   2.108
    7Na+    Na+  126   2.230   3.771   4.035
    8Na+    Na+  127   3.044   0.629   2.405
    9Na+    Na+  128   3.018   2.746   1.273
   10Na+    Na+  129   0.611   1.321   3.467
   11Na+    Na+  130   3.448   2.400   1.034
   12Na+    Na+  131   3.180   3.598   0.471
   13Cl-    Cl-  132   1.072   0.728   1.145
   14Cl-    Cl-  133   3.516   4.057   0.127
   15Cl-    Cl-  134   0.545   2.214   3.631
   16Cl-    Cl-  135   2.222   3.762   2.768
   17Cl-    Cl-  136   3.458   0.162   2.894
   18WAT      O  137   1.260   1.404   1.251
   18WAT     H1  138   1.344   1.364   1.272
   18WAT     H2  139   1.211   1.402   1.333
   18WAT    EPW  140   1.264   1.398   1.264
   19WAT      O  141   1.730   3.979   0.144
   19WAT     H1  142   1.693   3.929   0.071
   19WAT     H2  143   1.824   3.981   0.127
   19WAT    EPW  144   1.738   3.973   0.132
   20WAT      O  145   0.355   0.005   1.712
   20WAT     H1  146   0.330   0.024   1.802
   20WAT     H2  147   0.338   0.086   1.664
   20WAT    EPW  148   0.350   0.018   1.718
   21WAT      O  149   3.268   1.323   0.351
   21WAT     H1  150   3.352   1.322   0.306
   21WAT     H2  151   3.204   1.337   0.281
   21WAT    EPW  152   3.271   1.324   0.336
   22WAT      O  153   1.139   2.292   1.599
   22WAT     H1  154   1.087   2.308   1.520
   22WAT     H2  155   1.228   2.278   1.567
   22WAT    EPW  156   1.144   2.292   1.584
   23WAT      O  157   2.222   0.592   2.274
   23WAT     H1  158   2.200   0.540   2.196
   23WAT     H2  159   2.225   0.682   2.243
   23WAT    EPW  160   2.219   0.597   2.260
   24WAT      O  161   3.484   0.566   3.364
   24WAT     H1  162   3.392   0.584   3.342
   24WAT     H2  163   3.528   0.650   3.355
   24WAT    EPW  164   3.477   0.579   3.360
   25WAT      O  165   1.971   0.249   2.324
   25WAT     H1  166   2.061   0.256   2.357
   25WAT     H2  167   1.917   0.248   2.403
   25WAT    EPW  168   1.976   0.250   2.339
   26WAT      O  169   2.645   1.371   3.673
   26WAT     H1  170   2.556   1.378   3.708
   26WAT     H2  171   2.634   1.379   3.578
   26WAT    EPW  172   2.632   1.373   3.665
   27WAT      O  173   1.329   4.110   4.052
   27WAT     H1  174   1.422   4.128   4.066
   27WAT     H2  175   1.286   4.144   4.130
   27WAT    EPW  176   1.335   4.117   4.064
   28WAT      O  177   3.519   2.057   0.665
   28WAT     H1  178   3.463   1.983   0.688
   28WAT     H2  179   3.506   2.069   0.571
   28WAT    EPW  180   3.510   2.049   0.656
   29WAT      O  181   0.491   3.365   3.793
   29WAT     H1  182   0.470   3.427   3.724
   29WAT     H2  183   0.555   3.306   3.754
   29WAT    EPW  184   0.497   3.365   3.779
   30WAT      O  185   1.660   1.212   2.164
   30WAT     H1  186   1.599   1.278   2.196
   30WAT     H2  187   1.726   1.262   2.115
   30WAT    EPW  188   1.661   1.227   2.162
   31WAT      O  189   1.911   2.265   0.224
   31WAT     H1  190   1.864   2.251   0.141
   31WAT     H2  191   1.959   2.184   0.238
   31WAT    EPW  192   1.911   2.253   0.215
   32WAT      O  193   0.727   3.330   1.587
   32WAT     H1  194   0.753   3.333   1.495
   32WAT     H2  195   0.733   3.238   1.611
   32WAT    EPW  196   0.731   3.319   1.578
   33WAT      O  197   3.183   0.454   2.306
   33WAT     H1  198   3.265   0.432   2.351
   33WAT     H2  199   3.153   0.371   2.268
   33WAT    EPW  200   3.190   0.440   2.307
   34WAT      O  201   3.401   1.688   3.327
   34WAT     H1  202   3.341   1.742   3.379
   34WAT     H2  203   3.345   1.619   3.291
   34WAT    EPW  204   3.386   1.686   3.329
   35WAT      O  205   2.107   1.250   3.092
   35WAT     H1  206   2.110   1.294   3.007
   35WAT     H2  207   2.190   1.273   3.135
   35WAT    EPW  208   2.118   1.259   3.087
   36WAT      O  209   0.801   2.052   2.553
   36WAT     H1  210   0.891   2.041   2.582
   36WAT     H2  211   0.767   1.963   2.545
   36WAT    EPW  212   0.808   2.039   2.556
   37WAT      O  213   2.496   2.625   0.786
   37WAT     H1  214   2.435   2.695   0.809
   37WAT     H2  215   2.553   2.664   0.719
   37WAT    EPW  216   2.496   2.639   0.780
   38WAT      O  217   2.962   0.928   3.703
   38WAT     H1  218   2.984   0.853   3.648
   38WAT     H2  219   2.991   0.903   3.791
   38WAT    EPW  220   2.969   0.915   3.707
   39WAT      O  221   0.914   4.122   3.482
   39WAT     H1  222   0.931   4.099   3.390
   39WAT     H2  223   0.836   4.071   3.506
   39WAT    EPW  224   0.906   4.112   3.473
   40WAT      O  225   1.399   2.713   0.806
   40WAT     H1  226   1.388   2.618   0.807
   40WAT     H2  227   1.440   2.731   0.721
   40WAT    EPW  228   1.403   2.703   0.795
   41WAT      O  229   1.135   0.996   2.894
   41WAT     H1  230   1.105   1.043   2.972
   41WAT     H2  231   1.115   1.055   2.821
   41WAT    EPW  232   1.128   1.010   2.895
   42WAT      O  233   1.350   2.336   0.554
   42WAT     H1  234   1.391   2.367   0.635
   42WAT     H2  235   1.335   2.415   0.502
   42WAT    EPW  236   1.353   2.350   0.558
   43WAT      O  237   3.677   0.632   0.243
   43WAT     H1  238   3.648   0.554   0.195
   43WAT     H2  239   3.619   0.702   0.211
   43WAT    EPW  240   3.665   0.631   0.232
   44WAT      O  241   2.551   2.493   3.315
   44WAT     H1  242   2.626   2.553   3.311
   44WAT     H2  243   2.569   2.428   3.247
   44WAT    EPW  244   2.563   2.492   3.305
   45WAT      O  245   1.798   2.867   1.260
   45WAT     H1  246   1.798   2.826   1.173
   45WAT     H2  247   1.806   2.793   1.321
   45WAT    EPW  248   1.799   2.851   1.256
   46WAT      O  249   2.561   1.998   3.306
   46WAT     H1  250   2.636   2.011   3.247
   46WAT     H2  251   2.597   2.008   3.394
   46WAT    EPW  252   2.576   2.001   3.310
   47WAT      O  253   3.769   3.943   3.493
   47WAT     H1  254   3.779   4.020   3.438
   47WAT     H2  255   3.843   3.887   3.469
   47WAT    EPW  256   3.780   3.946   3.483
   48WAT      O  257   0.758   3.382   1.305
   48WAT     H1  258   0.806   3.325   1.245
   48WAT     H2  259   0.668   3.382   1.272
   48WAT    EPW  260   0.753   3.374   1.293
   49WAT      O  261   2.535   0.690   0.239
   49WAT     H1  262   2.616   0.718   0.195
   49WAT     H2  263   2.466   0.729   0.185
   49WAT    EPW  264   2.537   0.699   0.226
   50WAT      O  265   2.808   2.489   0.746
   50WAT     H1  266   2.822   2.435   0.824
   50WAT     H2  267   2.788   2.426   0.677
   50WAT    EPW  268   2.807   2.473   0.747
   51WAT      O  269   1.386   0.190   0.354
   51WAT     H1  270   1.429   0.276   0.353
   51WAT     H2  271   1.457   0.128   0.343
   51WAT    EPW  272   1.401   0.193   0.352
   52WAT      O  273   2.686   1.716   0.916
   52WAT     H1  274   2.734   1.652   0.968
   52WAT     H2  275   2.663   1.670   0.836
   52WAT    EPW  276   2.689   1.702   0.913
   53WAT      O  277   0.522   0.514   0.725
   53WAT     H1  278   0.491   0.426   0.703
   53WAT     H2  279   0.503   0.566   0.647
   53WAT    EPW  280   0.516   0.509   0.712
   54WAT      O  281   1.206   2.330   4.047
   54WAT     H1  282   1.286   2.287   4.015
   54WAT     H2  283   1.163   2.362   3.969
   54WAT    EPW  284   1.211   2.328   4.033
   55WAT      O  285   0.316   3.859   1.499
   55WAT     H1  286   0.335   3.943   1.457
   55WAT     H2  287   0.351   3.793   1.438
   55WAT    EPW  288   0.323   3.861   1.485
   56WAT      O  289   0.891   3.089   0.172
   56WAT     H1  290   0.914   3.142   0.249
   56WAT     H2  291   0.887   3.152   0.100
   56WAT    EPW  292   0.894   3.105   0.172
   57WAT      O  293   2.529   0.490   0.887
   57WAT     H1  294   2.454   0.546   0.907
   57WAT     H2  295   2.533   0.490   0.791
   57WAT    EPW  296   2.520   0.497   0.877
   58WAT      O  297   0.448   0.006   0.468
   58WAT     H1  298   0.521  -0.021   0.411
   58WAT     H2  299   0.371  -0.037   0.430
   58WAT    EPW  300   0.448  -0.004   0.456
   59WAT      O  301   3.184   0.106   0.959
   59WAT     H1  302   3.208   0.173   1.023
   59WAT     H2  303   3.268   0.070   0.930
   59WAT    EPW  304   3.198   0.110   0.964
   60WAT      O  305   0.624   3.840   0.649
   60WAT     H1  306   0.649   3.748   0.646
   60WAT     H2  307   0.706   3.888   0.637
   60WAT    EPW  308   0.638   3.835   0.647
   61WAT      O  309   1.972   2.608   0.431
   61WAT     H1  310   1.913   2.580   0.500
   61WAT     H2  311   2.055   2.624   0.476
   61WAT    EPW  312   1.975   2.607   0.446
   62WAT      O  313   3.279   1.515   4.018
   62WAT     H1  314   3.266   1.524   3.924
   62WAT     H2  315   3.277   1.605   4.051
   62WAT    EPW  316   3.277   1.528   4.010
   63WAT      O  317   3.445   0.178   1.284
   63WAT     H1  318   3.523   0.233   1.280
   63WAT     H2  319   3.448   0.126   1.204
   63WAT    EPW  320   3.456   0.178   1.273
   64WAT      O  321   2.166   2.428   3.851
   64WAT     H1  322   2.236   2.475   3.898
   64WAT     H2  323   2.085   2.464   3.887
   64WAT    EPW  324   2.165   2.439   3.862
   65WAT      O  325   0.281   1.084   0.471
   65WAT     H1  326   0.332   1.155   0.510
   65WAT     H2  327   0.332   1.055   0.396
   65WAT    EPW  328   0.294   1.090   0.466
   66WAT      O  329   1.676   1.679   0.851
   66WAT     H1  330   1.596   1.657   0.899
   66WAT     H2  331   1.645   1.725   0.773
   66WAT    EPW  332   1.661   1.682   0.847
   67WAT      O  333   2.796   0.172   4.058
   67WAT     H1  334   2.834   0.253   4.089
   67WAT     H2  335   2.851   0.103   4.095
   67WAT    EPW  336   2.808   0.173   4.067
   68WAT      O  337   3.082   3.537   0.255
   68WAT     H1  338   2.995   3.537   0.216
   68WAT     H2  339   3.120   3.453   0.230
   68WAT    EPW  340   3.076   3.526   0.247
   69WAT      O  341   2.872   2.744   0.906
   69WAT     H1  342   2.806   2.813   0.899
   69WAT     H2  343   2.829   2.665   0.873
   69WAT    EPW  344   2.857   2.743   0.901
   70WAT      O  345   1.413   1.619   2.458
   70WAT     H1  346   1.456   1.698   2.426
   70WAT     H2  347   1.319   1.641   2.458
   70WAT    EPW  348   1.406   1.632   2.454
   71WAT      O  349   2.591   2.302   3.106
   71WAT     H1  350   2.637   2.219   3.095
   71WAT     H2  351   2.501   2.277   3.128
   71WAT    EPW  352   2.585   2.287   3.108
   72WAT      O  353   1.321   1.249   0.565
   72WAT     H1  354   1.339   1.287   0.651
   72WAT     H2  355   1.226   1.242   0.562
   72WAT    EPW  356   1.311   1.253   0.576
   73WAT      O  357   3.716   3.062   3.232
   73WAT     H1  358   3.712   2.979   3.184
   73WAT     H2  359   3.636   3.064   3.283
   73WAT    EPW  360   3.705   3.051   3.232
   74WAT      O  361   2.819   0.509   0.595
   74WAT     H1  362   2.835   0.589   0.545
   74WAT     H2  363   2.725   0.512   0.616
   74WAT    EPW  364   2.808   0.520   0.592
   75WAT      O  365   2.664   0.093   0.976
   75WAT     H1  366   2.678   0.049   1.060
   75WAT     H2  367   2.746   0.081   0.929
   75WAT    EPW  368   2.676   0.086   0.981
   76WAT      O  369   1.611   1.647   4.017
   76WAT     H1  370   1.623   1.656   3.923
   76WAT     H2  371   1.563   1.726   4.042
   76WAT    EPW  372   1.606   1.659   4.008
   77WAT      O  373   2.511   2.125   1.366
   77WAT     H1  374   2.480   2.042   1.329
   77WAT     H2  375   2.430   2.172   1.388
   77WAT    EPW  376   2.496   2.121   1.364
   78WAT      O  377   2.732   3.998   0.318
   78WAT     H1  378   2.746   4.093   0.322
   78WAT     H2  379   2.695   3.975   0.403
   78WAT    EPW  380   2.729   4.007   0.330
   79WAT      O  381   1.301   1.056   3.633
   79WAT     H1  382   1.276   1.138   3.676
   79WAT     H2  383   1.397   1.059   3.630
   79WAT    EPW  384   1.311   1.067   3.639
   80WAT      O  385   2.674   2.680   0.541
   80WAT     H1  386   2.739   2.632   0.592
   80WAT     H2  387   2.638   2.615   0.480
   80WAT    EPW  388   2.678   2.666   0.539
   81WAT      O  389   0.276   0.893   3.721
   81WAT     H1  390   0.249   0.983   3.738
   81WAT     H2  391   0.226   0.841   3.784
   81WAT    EPW  392   0.266   0.898   3.731
   82WAT      O  393   1.984   0.171   1.715
   82WAT     H1  394   1.916   0.111   1.686
   82WAT     H2  395   1.940   0.255   1.723
   82WAT    EPW  396   1.969   0.174   1.712
   83WAT      O  397   0.544   2.740   3.011
   83WAT     H1  398   0.614   2.708   3.066
   83WAT     H2  399   0.573   2.724   2.921
   83WAT    EPW  400   0.557   2.734   3.006
   84WAT      O  401   2.499   1.553   1.239
   84WAT     H1  402   2.511   1.540   1.145
   84WAT     H2  403   2.438   1.483   1.264
   84WAT    EPW  404   2.492   1.542   1.230
   85WAT      O  405   1.855   1.254   0.694
   85WAT     H1  406   1.897   1.208   0.622
   85WAT     H2  407   1.771   1.209   0.707
   85WAT    EPW  408   1.849   1.242   0.686
   86WAT      O  409   0.345   2.626   3.494
   86WAT     H1  410   0.359   2.695   3.430
   86WAT     H2  411   0.418   2.565   3.480
   86WAT    EPW  412   0.356   2.627   3.484
   87WAT      O  413   2.667   2.438   0.096
   87WAT     H1  414   2.692   2.513   0.043
   87WAT     H2  415   2.749   2.394   0.117
   87WAT    EPW  416   2.681   2.442   0.092
   88WAT      O  417   0.777   1.051   3.171
   88WAT     H1  418   0.768   1.058   3.076
   88WAT     H2  419   0.862   1.010   3.184
   88WAT    EPW  420   0.787   1.047   3.160
   89WAT      O  421   0.007   1.139   0.467
   89WAT     H1  422   0.095   1.102   0.473
   89WAT     H2  423   0.018   1.218   0.414
   89WAT    EPW  424   0.020   1.145   0.461
   90WAT      O  425   3.263   3.481   2.003
   90WAT     H1  426   3.220   3.418   2.060
   90WAT     H2  427   3.282   3.556   2.059
   90WAT    EPW  428   3.260   3.483   2.018
   91WAT      O  429   3.637   1.878   0.424
   91WAT     H1  430   3.649   1.955   0.369
   91WAT     H2  431   3.617   1.913   0.511
   91WAT    EPW  432   3.636   1.893   0.428
   92WAT      O  433   1.464   3.130   1.009
   92WAT     H1  434   1.388   3.094   0.964
   92WAT     H2  435   1.427   3.174   1.086
   92WAT    EPW  436   1.449   3.131   1.014
   93WAT      O  437   2.458   0.712   2.462
   93WAT     H1  438   2.367   0.684   2.460
   93WAT     H2  439   2.455   0.803   2.493
   93WAT    EPW  440   2.446   0.720   2.466
   94WAT      O  441   0.879   0.506   0.347
   94WAT     H1  442   0.804   0.467   0.392
   94WAT     H2  443   0.954   0.482   0.402
   94WAT    EPW  444   0.879   0.498   0.360
   95WAT      O  445   0.744   2.641   3.887
   95WAT     H1  446   0.687   2.564   3.879
   95WAT     H2  447   0.721   2.677   3.973
   95WAT    EPW  448   0.733   2.635   3.898
   96WAT      O  449   1.129   3.649   2.135
   96WAT     H1  450   1.220   3.669   2.157
   96WAT     H2  451   1.079   3.718   2.177
   96WAT    EPW  452   1.135   3.660   2.143
   97WAT      O  453   3.180   1.865   2.081
   97WAT     H1  454   3.239   1.940   2.081
   97WAT     H2  455   3.115   1.885   2.148
   97WAT    EPW  456   3.179   1.877   2.090
   98WAT      O  457   2.811   1.706   0.207
   98WAT     H1  458   2.887   1.701   0.265
   98WAT     H2  459   2.780   1.796   0.216
   98WAT    EPW  460   2.817   1.717   0.216
   99WAT      O  461   3.613   2.134   2.142
   99WAT     H1  462   3.522   2.111   2.160
   99WAT     H2  463   3.621   2.225   2.172
   99WAT    EPW  464   3.602   2.143   2.148
  100WAT      O  465   0.114   1.329   2.130
  100WAT     H1  466   0.120   1.360   2.040
  100WAT     H2  467   0.172   1.388   2.179
  100WAT    EPW  468   0.122   1.341   2.125
  101WAT      O  469   3.737   0.849   2.238
  101WAT     H1  470   3.690   0.858   2.155
  101WAT     H2  471   3.813   0.795   2.216
  101WAT    EPW  472   3.741   0.843   2.224
  102WAT      O  473   0.087   1.660   0.471
  102WAT     H1  474   0.178   1.684   0.490
  102WAT     H2  475   0.053   1.735   0.422
  102WAT    EPW  476   0.094   1.673   0.467
  103WAT      O  477   3.387   3.545   0.404
  103WAT     H1  478   3.452   3.509   0.465
  103WAT     H2  479   3.440   3.595   0.341
  103WAT    EPW  480   3.403   3.547   0.404
  104WAT      O  481   1.802   3.420   0.526
  104WAT     H1  482   1.851   3.501   0.516
  104WAT     H2  483   1.866   3.357   0.560
  104WAT    EPW  484   1.817   3.422   0.530
  105WAT      O  485   2.257   0.288   0.717
  105WAT     H1  486   2.275   0.371   0.762
  105WAT     H2  487   2.344   0.251   0.701
  105WAT    EPW  488   2.271   0.294   0.721
  106WAT      O  489   3.544   2.563   0.037
  106WAT     H1  490   3.482   2.506  -0.008
  106WAT     H2  491   3.574   2.624  -0.030
  106WAT    EPW  492   3.540   2.564   0.023
  107WAT      O  493   3.056   1.696   1.682
  107WAT     H1  494   3.142   1.680   1.642
  107WAT     H2  495   3.033   1.613   1.724
  107WAT    EPW  496   3.064   1.683   1.682
  108WAT      O  497   2.511   0.784   1.998
  108WAT     H1  498   2.429   0.788   2.047
  108WAT     H2  499   2.578   0.764   2.064
  108WAT    EPW  500   2.509   0.782   2.013
  109WAT      O  501   2.873   2.411   3.141
  109WAT     H1  502   2.783   2.381   3.133
  109WAT     H2  503   2.866   2.501   3.173
  109WAT    EPW  504   2.860   2.419   3.144
  110WAT      O  505   2.631   0.565   1.738
  110WAT     H1  506   2.662   0.655   1.742
  110WAT     H2  507   2.537   0.572   1.754
  110WAT    EPW  508   2.623   0.578   1.740
  111WAT      O  509   0.471   3.919   2.837
  111WAT     H1  510   0.472   3.979   2.762
  111WAT     H2  511   0.558   3.880   2.837
  111WAT    EPW  512   0.482   3.922   2.827
  112WAT      O  513   1.231   2.780   0.196
  112WAT     H1  514   1.273   2.813   0.116
  112WAT     H2  515   1.285   2.704   0.220
  112WAT    EPW  516   1.244   2.774   0.188
  113WAT      O  517   0.726   1.424   1.552
  113WAT     H1  518   0.807   1.406   1.600
  113WAT     H2  519   0.735   1.374   1.471
  113WAT    EPW  520   0.738   1.415   1.548
  114WAT      O  521   0.914   2.172   3.054
  114WAT     H1  522   0.930   2.154   3.146
  114WAT     H2  523   0.848   2.242   3.054
  114WAT    EPW  524   0.907   2.179   3.066
  115WAT      O  525   0.142   2.969   3.428
  115WAT     H1  526   0.216   2.920   3.390
  115WAT     H2  527   0.093   3.000   3.352
  115WAT    EPW  528   0.146   2.967   3.413
  116WAT      O  529   0.478   2.308   2.138
  116WAT     H1  530   0.514   2.315   2.227
  116WAT     H2  531   0.401   2.366   2.139
  116WAT    EPW  532   0.472   2.317   2.150
  117WAT      O  533   1.149   4.015   3.628
  117WAT     H1  534   1.099   3.996   3.707
  117WAT     H2  535   1.088   4.060   3.570
  117WAT    EPW  536   1.135   4.018   3.631
  118WAT      O  537   3.369   3.548   4.086
  118WAT     H1  538   3.339   3.639   4.074
  118WAT     H2  539   3.389   3.518   3.998
  118WAT    EPW  540   3.368   3.556   4.073
  119WAT      O  541   0.374   2.503   1.855
  119WAT     H1  542   0.348   2.499   1.947
  119WAT     H2  543   0.338   2.423   1.817
  119WAT    EPW  544   0.366   2.492   1.862
  120WAT      O  545   3.342   3.822   2.652
  120WAT     H1  546   3.361   3.733   2.621
  120WAT     H2  547   3.418   3.845   2.705
  120WAT    EPW  548   3.355   3.813   2.655
  121WAT      O  549   1.727   2.100   3.757
  121WAT     H1  550   1.809   2.132   3.794
  121WAT     H2  551   1.753   2.049   3.681
  121WAT    EPW  552   1.741   2.098   3.752
  122WAT      O  553   0.567   0.646   2.712
  122WAT     H1  554   0.622   0.618   2.639
  122WAT     H2  555   0.529   0.729   2.682
  122WAT    EPW  556   0.569   0.653   2.698
  123WAT      O  557   2.737   3.094   2.940
  123WAT     H1  558   2.655   3.049   2.919
  123WAT     H2  559   2.729   3.180   2.899
  123WAT    EPW  560   2.725   3.100   2.932
  124WAT      O  561   0.233   1.504   1.611
  124WAT     H1  562   0.309   1.446   1.606
  124WAT     H2  563   0.270   1.592   1.601
  124WAT    EPW  564   0.248   1.508   1.609
  125WAT      O  565   3.608   3.405   0.523
  125WAT     H1  566   3.692   3.432   0.485
  125WAT     H2  567   3.623   3.405   0.618
  125WAT    EPW  568   3.621   3.409   0.531
  126WAT      O  569   0.099   2.842   2.277
  126WAT     H1  570   0.134   2.767   2.229
  126WAT     H2  571   0.081   2.908   2.210
  126WAT    EPW  572   0.101   2.841   2.262
  127WAT      O  573   0.705   3.154   3.723
  127WAT     H1  574   0.679   3.070   3.686
  127WAT     H2  575   0.715   3.137   3.817
  127WAT    EPW  576   0.703   3.141   3.730
  128WAT      O  577   2.897   3.090   0.678
  128WAT     H1  578   2.918   3.149   0.606
  128WAT     H2  579   2.829   3.032   0.642
  128WAT    EPW  580   2.891   3.090   0.663
  129WAT      O  581   2.534   0.193   3.022
  129WAT     H1  582   2.534   0.132   3.096
  129WAT     H2  583   2.619   0.178   2.979
  129WAT    EPW  584   2.546   0.183   3.026
  130WAT      O  585   2.459   2.459   0.570
  130WAT     H1  586   2.426   2.517   0.502
  130WAT     H2  587   2.444   2.507   0.652
  130WAT    EPW  588   2.453   2.473   0.572
  131WAT      O  589   1.286   3.207   0.630
  131WAT     H1  590   1.299   3.122   0.672
  131WAT     H2  591   1.201   3.237   0.662
  131WAT    EPW  592   1.276   3.200   0.640
  132WAT      O  593   2.900   2.853   2.247
  132WAT     H1  594   2.826   2.859   2.187
  132WAT     H2  595   2.946   2.936   2.237
  132WAT    EPW  596   2.896   2.865   2.238
  133WAT      O  597   1.830   3.157   1.604
  133WAT     H1  598   1.739   3.135   1.624
  133WAT     H2  599   1.830   3.177   1.511
  133WAT    EPW  600   1.818   3.157   1.595
  134WAT      O  601   0.276   2.289   3.161
  134WAT     H1  602   0.222   2.232   3.215
  134WAT     H2  603   0.234   2.375   3.166
  134WAT    EPW  604   0.263   2.293   3.169
  135WAT      O  605   1.666   2.390   2.956
  135WAT     H1  606   1.677   2.410   3.049
  135WAT     H2  607   1.656   2.476   2.914
  135WAT    EPW  608   1.667   2.404   2.963
  136WAT      O  609   1.134   0.691   2.201
  136WAT     H1  610   1.060   0.716   2.145
  136WAT     H2  611   1.211   0.717   2.151
  136WAT    EPW  612   1.134   0.697   2.187
  137WAT      O  613   2.344   1.477   2.058
  137WAT     H1  614   2.274   1.542   2.053
  137WAT     H2  615   2.394   1.501   2.136
  137WAT    EPW  616   2.342   1.489   2.067
  138WAT      O  617   1.643   3.754   1.271
  138WAT     H1  618   1.595   3.835   1.289
  138WAT     H2  619   1.736   3.778   1.280
  138WAT    EPW  620   1.649   3.768   1.275
  139WAT      O  621   2.479   3.769   2.604
  139WAT     H1  622   2.420   3.749   2.676
  139WAT     H2  623   2.519   3.853   2.628
  139WAT    EPW  624   2.476   3.778   2.617
  140WAT      O  625   0.202   2.500   1.524
  140WAT     H1  626   0.175   2.575   1.471
  140WAT     H2  627   0.291   2.480   1.495
  140WAT    EPW  628   0.210   2.507   1.513
  141WAT      O  629   0.176   1.553   3.241
  141WAT     H1  630   0.175   1.462   3.213
  141WAT     H2  631   0.085   1.573   3.264
  141WAT    EPW  632   0.164   1.544   3.240
  142WAT      O  633   0.153   1.133   0.762
  142WAT     H1  634   0.081   1.148   0.701
  142WAT     H2  635   0.229   1.174   0.721
  142WAT    EPW  636   0.154   1.140   0.749
  143WAT      O  637   1.983   3.385   3.167
  143WAT     H1  638   2.001   3.396   3.073
  143WAT     H2  639   1.980   3.291   3.180
  143WAT    EPW  640   1.985   3.374   3.156
  144WAT      O  641   2.090   0.512   2.687
  144WAT     H1  642   2.054   0.444   2.630
  144WAT     H2  643   2.152   0.465   2.743
  144WAT    EPW  644   2.093   0.497   2.687
  145WAT      O  645   2.218   2.754   1.719
  145WAT     H1  646   2.209   2.835   1.668
  145WAT     H2  647   2.155   2.764   1.790
  145WAT    EPW  648   2.208   2.766   1.722
  146WAT      O  649   2.606   3.507   2.975
  146WAT     H1  650   2.568   3.589   3.006
  146WAT     H2  651   2.531   3.447   2.970
  146WAT    EPW  652   2.591   3.510   2.979
  147WAT      O  653   3.694   1.192   3.126
  147WAT     H1  654   3.712   1.101   3.103
  147WAT     H2  655   3.687   1.237   3.042
  147WAT    EPW  656   3.696   1.186   3.112
  148WAT      O  657   1.941   2.094   2.037
  148WAT     H1  658   1.884   2.169   2.057
  148WAT     H2  659   1.940   2.090   1.941
  148WAT    EPW  660   1.933   2.104   2.027
  149WAT      O  661   0.969   0.042   1.560
  149WAT     H1  662   0.992   0.019   1.469
  149WAT     H2  663   0.985   0.137   1.565
  149WAT    EPW  664   0.974   0.052   1.548
  150WAT      O  665   1.879   3.013   0.624
  150WAT     H1  666   1.937   2.943   0.597
  150WAT     H2  667   1.791   2.979   0.610
  150WAT    EPW  668   1.875   3.000   0.619
  151WAT      O  669   1.332   0.201   3.761
  151WAT     H1  670   1.283   0.228   3.683
  151WAT     H2  671   1.278   0.133   3.802
  151WAT    EPW  672   1.319   0.196   3.756
  152WAT      O  673   2.248   0.555   0.905
  152WAT     H1  674   2.170   0.590   0.949
  152WAT     H2  675   2.247   0.596   0.819
  152WAT    EPW  676   2.237   0.565   0.900
  153WAT      O  677   1.798   1.289   1.650
  153WAT     H1  678   1.809   1.384   1.648
  153WAT     H2  679   1.705   1.275   1.635
  153WAT    EPW  680   1.787   1.300   1.647
  154WAT      O  681   3.155   4.020   2.746
  154WAT     H1  682   3.208   4.084   2.700
  154WAT     H2  683   3.212   3.944   2.757
  154WAT    EPW  684   3.169   4.018   2.741
  155WAT      O  685   2.470   0.024   1.548
  155WAT     H1  686   2.402   0.081   1.512
  155WAT     H2  687   2.514  -0.014   1.471
  155WAT    EPW  688   2.467   0.027   1.533
  156WAT      O  689   1.189   0.052   1.170
  156WAT     H1  690   1.262   0.114   1.172
  156WAT     H2  691   1.168   0.043   1.077
  156WAT    EPW  692   1.196   0.059   1.158
  157WAT      O  693   3.376   4.037   3.741
  157WAT     H1  694   3.457   4.072   3.778
  157WAT     H2  695   3.387   3.942   3.743
  157WAT    EPW  696   3.388   4.029   3.746
  158WAT      O  697   1.136   2.241   0.219
  158WAT     H1  698   1.151   2.218   0.128
  158WAT     H2  699   1.222   2.234   0.260
  158WAT    EPW  700   1.149   2.237   0.213
  159WAT      O  701   3.079   0.879   3.946
  159WAT     H1  702   3.142   0.947   3.968
  159WAT     H2  703   3.044   0.851   4.031
  159WAT    EPW  704   3.083   0.884   3.960
  160WAT      O  705   3.512   3.460   2.838
  160WAT     H1  706   3.488   3.484   2.927
  160WAT     H2  707   3.591   3.511   2.819
  160WAT    EPW  708   3.519   3.470   2.847
  161WAT      O  709   1.069   2.537   0.615
  161WAT     H1  710   0.986   2.584   0.607
  161WAT     H2  711   1.097   2.554   0.705
  161WAT    EPW  712   1.062   2.546   0.626
  162WAT      O  713   0.255   1.695   0.150
  162WAT     H1  714   0.307   1.614   0.147
  162WAT     H2  715   0.315   1.763   0.120
  162WAT    EPW  716   0.270   1.693   0.145
  163WAT      O  717   2.536   1.232   4.001
  163WAT     H1  718   2.544   1.313   3.951
  163WAT     H2  719   2.608   1.177   3.969
  163WAT    EPW  720   2.547   1.235   3.990
  164WAT      O  721   2.031   2.131   1.268
  164WAT     H1  722   2.034   2.192   1.342
  164WAT     H2  723   1.942   2.096   1.269
  164WAT    EPW  724   2.020   2.134   1.278
  165WAT      O  725   2.060   1.738   1.507
  165WAT     H1  726   1.994   1.768   1.570
  165WAT     H2  727   2.114   1.815   1.490
  165WAT    EPW  728   2.059   1.752   1.513
  166WAT      O  729   0.246   2.086   0.768
  166WAT     H1  730   0.214   1.998   0.789
  166WAT     H2  731   0.167   2.134   0.741
  166WAT    EPW  732   0.231   2.081   0.767
  167WAT      O  733   1.054   0.808   0.010
  167WAT     H1  734   1.005   0.762  -0.058
  167WAT     H2  735   1.140   0.766   0.011
  167WAT    EPW  736   1.059   0.797   0.001
  168WAT      O  737   2.516   0.172   0.650
  168WAT     H1  738   2.556   0.191   0.735
  168WAT     H2  739   2.543   0.083   0.630
  168WAT    EPW  740   2.525   0.163   0.659
  169WAT      O  741   0.184   0.930   2.687
  169WAT     H1  742   0.273   0.915   2.656
  169WAT     H2  743   0.159   1.014   2.647
  169WAT    EPW  744   0.192   0.939   2.677
  170WAT      O  745   3.757   0.034   3.305
  170WAT     H1  746   3.678   0.004   3.262
  170WAT     H2  747   3.728   0.104   3.364
  170WAT    EPW  748   3.743   0.039   3.307
  171WAT      O  749   2.146   1.107   2.409
  171WAT     H1  750   2.212   1.156   2.360
  171WAT     H2  751   2.087   1.073   2.343
  171WAT    EPW  752   2.147   1.109   2.394
  172WAT      O  753   3.240   1.859   1.427
  172WAT     H1  754   3.154   1.890   1.454
  172WAT     H2  755   3.267   1.799   1.496
  172WAT    EPW  756   3.233   1.855   1.440
  173WAT      O  757   2.632   1.605   2.097
  173WAT     H1  758   2.628   1.570   2.008
  173WAT     H2  759   2.700   1.673   2.093
  173WAT    EPW  760   2.640   1.610   2.085
  174WAT      O  761   2.532   2.919   2.790
  174WAT     H1  762   2.529   2.824   2.802
  174WAT     H2  763   2.529   2.931   2.695
  174WAT    EPW  764   2.531   2.908   2.779
  175WAT      O  765   2.876   1.065   1.483
  175WAT     H1  766   2.905   0.974   1.488
  175WAT     H2  767   2.781   1.060   1.478
  175WAT    EPW  768   2.867   1.052   1.483
  176WAT      O  769   0.110   1.625   3.813
  176WAT     H1  770   0.103   1.688   3.741
  176WAT     H2  771   0.058   1.551   3.784
  176WAT    EPW  772   0.102   1.624   3.799
  177WAT      O  773   0.102   1.848   0.820
  177WAT     H1  774   0.166   1.794   0.774
  177WAT     H2  775   0.019   1.804   0.805
  177WAT    EPW  776   0.100   1.835   0.812
  178WAT      O  777   1.579   0.612   3.517
  178WAT     H1  778   1.526   0.564   3.581
  178WAT     H2  779   1.669   0.600   3.546
  178WAT    EPW  780   1.584   0.604   3.529
  179WAT      O  781   3.268   3.839   0.468
  179WAT     H1  782   3.207   3.908   0.444
  179WAT     H2  783   3.352   3.884   0.477
  179WAT    EPW  784   3.271   3.854   0.466
  180WAT      O  785   0.769   2.678   2.730
  180WAT     H1  786   0.739   2.748   2.674
  180WAT     H2  787   0.825   2.721   2.795
  180WAT    EPW  788   0.773   2.693   2.731
  181WAT      O  789   0.029   3.360   1.288
  181WAT     H1  790   0.017   3.266   1.279
  181WAT     H2  791   0.036   3.375   1.382
  181WAT    EPW  792   0.029   3.350   1.299
  182WAT      O  793   2.918   2.127   1.272
  182WAT     H1  794   2.836   2.175   1.272
  182WAT     H2  795   2.892   2.035   1.282
  182WAT    EPW  796   2.904   2.121   1.274
  183WAT      O  797   2.051   2.592   3.084
  183WAT     H1  798   2.076   2.564   2.996
  183WAT     H2  799   1.977   2.536   3.107
  183WAT    EPW  800   2.045   2.580   3.076
  184WAT      O  801   3.282   1.780   4.086
  184WAT     H1  802   3.363   1.810   4.128
  184WAT     H2  803   3.215   1.841   4.119
  184WAT    EPW  804   3.284   1.792   4.096
  185WAT      O  805   1.237   1.786   0.173
  185WAT     H1  806   1.213   1.851   0.107
  185WAT     H2  807   1.207   1.703   0.137
  185WAT    EPW  808   1.230   1.784   0.160
  186WAT      O  809   0.532   3.349   2.234
  186WAT     H1  810   0.446   3.388   2.246
  186WAT     H2  811   0.592   3.423   2.237
  186WAT    EPW  812   0.529   3.364   2.236
  187WAT      O  813   3.618   1.445   0.623
  187WAT     H1  814   3.596   1.369   0.678
  187WAT     H2  815   3.682   1.412   0.560
  187WAT    EPW  816   3.623   1.431   0.622
  188WAT      O  817   0.539   3.686   0.165
  188WAT     H1  818   0.554   3.634   0.087
  188WAT     H2  819   0.591   3.765   0.152
  188WAT    EPW  820   0.548   3.690   0.153
  189WAT      O  821   0.720   1.508   0.156
  189WAT     H1  822   0.797   1.508   0.099
  189WAT     H2  823   0.693   1.600   0.158
  189WAT    EPW  824   0.727   1.520   0.149
  190WAT      O  825   2.996   2.758   1.548
  190WAT     H1  826   2.953   2.694   1.604
  190WAT     H2  827   3.022   2.828   1.609
  190WAT    EPW  828   2.994   2.759   1.564
  191WAT      O  829   3.737   0.509   2.143
  191WAT     H1  830   3.778   0.550   2.219
  191WAT     H2  831   3.803   0.512   2.074
  191WAT    EPW  832   3.751   0.515   2.144
  192WAT      O  833   3.200   1.277   1.984
  192WAT     H1  834   3.222   1.252   1.894
  192WAT     H2  835   3.191   1.372   1.980
  192WAT    EPW  836   3.202   1.286   1.972
  193WAT      O  837   3.559   3.132   2.221
  193WAT     H1  838   3.639   3.127   2.170
  193WAT     H2  839   3.550   3.046   2.261
  193WAT    EPW  840   3.568   3.120   2.219
  194WAT      O  841   1.637   0.211   2.846
  194WAT     H1  842   1.585   0.258   2.911
  194WAT     H2  843   1.686   0.280   2.800
  194WAT    EPW  844   1.637   0.227   2.849
  195WAT      O  845   1.097   1.487   0.359
  195WAT     H1  846   1.079   1.581   0.357
  195WAT     H2  847   1.187   1.480   0.325
  195WAT    EPW  848   1.107   1.499   0.354
  196WAT      O  849   0.629   3.954   0.927
  196WAT     H1  850   0.572   3.944   0.850
  196WAT     H2  851   0.569   3.970   0.999
  196WAT    EPW  852   0.614   3.955   0.926
  197WAT      O  853   0.305   0.582   2.677
  197WAT     H1  854   0.261   0.501   2.704
  197WAT     H2  855   0.398   0.565   2.690
  197WAT    EPW  856   0.311   0.569   2.682
  198WAT      O  857   3.533   0.524   2.432
  198WAT     H1  858   3.478   0.578   2.376
  198WAT     H2  859   3.508   0.434   2.412
  198WAT    EPW  860   3.522   0.519   2.422
  199WAT      O  861   0.506   4.001   2.152
  199WAT     H1  862   0.488   3.909   2.134
  199WAT     H2  863   0.487   4.011   2.246
  199WAT    EPW  864   0.501   3.990   2.162
  200WAT      O  865   3.594   1.981   1.475
  200WAT     H1  866   3.592   1.969   1.380
  200WAT     H2  867   3.648   1.909   1.507
  200WAT    EPW  868   3.601   1.970   1.467
  201WAT      O  869   0.825   3.987   1.655
  201WAT     H1  870   0.870   4.057   1.608
  201WAT     H2  871   0.747   4.028   1.691
  201WAT    EPW  872   0.821   4.002   1.653
  202WAT      O  873   3.022   3.425   3.998
  202WAT     H1  874   2.992   3.512   3.972
  202WAT     H2  875   2.993   3.367   3.927
  202WAT    EPW  876   3.014   3.429   3.985
  203WAT      O  877   2.870   0.515   2.289
  203WAT     H1  878   2.799   0.571   2.259
  203WAT     H2  879   2.830   0.428   2.296
  203WAT    EPW  880   2.855   0.511   2.286
  204WAT      O  881   2.983   1.170   2.515
  204WAT     H1  882   2.917   1.203   2.576
  204WAT     H2  883   2.950   1.194   2.428
  204WAT    EPW  884   2.970   1.177   2.511
  205WAT      O  885   1.024   1.022   2.605
  205WAT     H1  886   1.088   0.977   2.550
  205WAT     H2  887   1.014   1.108   2.565
  205WAT    EPW  888   1.031   1.028   2.593
  206WAT      O  889   0.366   3.651   1.318
  206WAT     H1  890   0.417   3.652   1.236
  206WAT     H2  891   0.280   3.619   1.292
  206WAT    EPW  892   0.361   3.647   1.303
  207WAT      O  893   2.756   0.864   1.825
  207WAT     H1  894   2.784   0.946   1.865
  207WAT     H2  895   2.671   0.884   1.786
  207WAT    EPW  896   2.749   0.877   1.825
  208WAT      O  897   0.002   0.020   2.793
  208WAT     H1  898   0.082   0.067   2.771
  208WAT     H2  899  -0.052   0.084   2.840
  208WAT    EPW  900   0.006   0.034   2.796
  209WAT      O  901   3.453   0.035   1.819
  209WAT     H1  902   3.414   0.095   1.883
  209WAT     H2  903   3.506  -0.025   1.872
  209WAT    EPW  904   3.455   0.035   1.834
  210WAT      O  905   3.167   0.137   0.395
  210WAT     H1  906   3.087   0.187   0.404
  210WAT     H2  907   3.205   0.135   0.483
  210WAT    EPW  908   3.162   0.143   0.408
  211WAT      O  909   2.011   3.078   2.262
  211WAT     H1  910   1.981   3.166   2.242
  211WAT     H2  911   2.045   3.084   2.352
  211WAT    EPW  912   2.012   3.090   2.271
  212WAT      O  913   2.267   2.252   3.433
  212WAT     H1  914   2.306   2.320   3.487
  212WAT     H2  915   2.241   2.184   3.495
  212WAT    EPW  916   2.269   2.252   3.448
  213WAT      O  917   2.748   3.624   2.670
  213WAT     H1  918   2.657   3.646   2.686
  213WAT     H2  919   2.746   3.569   2.592
  213WAT    EPW  920   2.736   3.620   2.662
  214WAT      O  921   0.078   1.935   3.664
  214WAT     H1  922   0.072   1.860   3.604
  214WAT     H2  923   0.114   2.005   3.610
  214WAT    EPW  924   0.082   1.934   3.649
  215WAT      O  925   1.242   3.872   1.942
  215WAT     H1  926   1.335   3.873   1.963
  215WAT     H2  927   1.211   3.787   1.972
  215WAT    EPW  928   1.250   3.861   1.949
  216WAT      O  929   1.804   3.536   1.541
  216WAT     H1  930   1.827   3.528   1.634
  216WAT     H2  931   1.730   3.477   1.530
  216WAT    EPW  932   1.797   3.527   1.552
  217WAT      O  933   0.071   1.741   2.666
  217WAT     H1  934   0.134   1.670   2.679
  217WAT     H2  935   0.018   1.712   2.592
  217WAT    EPW  936   0.073   1.728   2.658
  218WAT      O  937   3.417   1.425   2.853
  218WAT     H1  938   3.475   1.500   2.869
  218WAT     H2  939   3.342   1.463   2.808
  218WAT    EPW  940   3.415   1.440   2.849
  219WAT      O  941   0.702   0.015   2.857
  219WAT     H1  942   0.671   0.078   2.792
  219WAT     H2  943   0.792   0.042   2.875
  219WAT    EPW  944   0.710   0.027   2.850
  220WAT      O  945   2.271   3.613   3.041
  220WAT     H1  946   2.257   3.664   2.962
  220WAT     H2  947   2.284   3.523   3.010
  220WAT    EPW  948   2.271   3.608   3.027
  221WAT      O  949   2.717   2.062   4.069
  221WAT     H1  950   2.638   2.016   4.099
  221WAT     H2  951   2.737   2.022   3.984
  221WAT    EPW  952   2.709   2.050   4.062
  222WAT      O  953   2.441   2.305   0.215
  222WAT     H1  954   2.404   2.256   0.141
  222WAT     H2  955   2.511   2.357   0.176
  222WAT    EPW  956   2.445   2.305   0.200
  223WAT      O  957   3.191   0.130   2.519
  223WAT     H1  958   3.232   0.208   2.557
  223WAT     H2  959   3.264   0.070   2.502
  223WAT    EPW  960   3.206   0.132   2.522
  224WAT      O  961   1.960   2.738   2.203
  224WAT     H1  962   1.890   2.673   2.199
  224WAT     H2  963   1.948   2.782   2.287
  224WAT    EPW  964   1.949   2.735   2.213
  225WAT      O  965   2.100   3.499   1.176
  225WAT     H1  966   2.067   3.559   1.242
  225WAT     H2  967   2.041   3.424   1.179
  225WAT    EPW  968   2.088   3.497   1.185
  226WAT      O  969   0.422   2.286   1.124
  226WAT     H1  970   0.344   2.298   1.069
  226WAT     H2  971   0.482   2.234   1.070
  226WAT    EPW  972   0.420   2.280   1.110
  227WAT      O  973   0.426   1.470   0.077
  227WAT     H1  974   0.511   1.433   0.103
  227WAT     H2  975   0.433   1.482  -0.018
  227WAT    EPW  976   0.438   1.466   0.068
  228WAT      O  977   0.893   0.794   2.924
  228WAT     H1  978   0.944   0.847   2.862
  228WAT     H2  979   0.834   0.857   2.966
  228WAT    EPW  980   0.892   0.810   2.921
  229WAT      O  981   0.714   0.290   0.422
  229WAT     H1  982   0.662   0.293   0.502
  229WAT     H2  983   0.651   0.304   0.351
  229WAT    EPW  984   0.699   0.292   0.423
  230WAT      O  985   1.995   0.392   0.004
  230WAT     H1  986   1.942   0.336   0.061
  230WAT     H2  987   2.065   0.334  -0.028
  230WAT    EPW  988   1.997   0.377   0.007
  231WAT      O  989   3.558   3.946   2.807
  231WAT     H1  990   3.621   3.958   2.736
  231WAT     H2  991   3.525   4.034   2.824
  231WAT    EPW  992   3.562   3.959   2.800
  232WAT      O  993   1.117   2.960   0.020
  232WAT     H1  994   1.040   3.005   0.056
  232WAT     H2  995   1.083   2.876  -0.010
  232WAT    EPW  996   1.102   2.955   0.021
  233WAT      O  997   2.410   3.333   4.080
  233WAT     H1  998   2.443   3.274   4.013
  233WAT     H2  999   2.343   3.385   4.036
  233WAT    EPW 1000   2.406   3.332   4.065
  234WAT      O 1001   1.870   0.423   1.629
  234WAT     H1 1002   1.840   0.470   1.551
  234WAT     H2 1003   1.856   0.486   1.700
  234WAT    EPW 1004   1.864   0.438   1.628
  235WAT      O 1005   1.562   0.742   1.597
  235WAT     H1 1006   1.650   0.712   1.572
  235WAT     H2 1007   1.536   0.800   1.526
  235WAT    EPW 1008   1.570   0.746   1.584
  236WAT      O 1009   1.715   0.561   2.214
  236WAT     H1 1010   1.670   0.619   2.153
  236WAT     H2 1011   1.644   0.522   2.266
  236WAT    EPW 1012   1.700   0.563   2.213
  237WAT      O 1013   1.226   3.901   3.121
  237WAT     H1 1014   1.223   3.811   3.155
  237WAT     H2 1015   1.190   3.893   3.033
  237WAT    EPW 1016   1.221   3.888   3.114
  238WAT      O 1017   0.345   1.430   0.422
  238WAT     H1 1018   0.249   1.434   0.412
  238WAT     H2 1019   0.372   1.522   0.430
  238WAT    EPW 1020   0.336   1.443   0.422
  239WAT      O 1021   3.339   2.656   1.657
  239WAT     H1 1022   3.392   2.626   1.583
  239WAT     H2 1023   3.398   2.653   1.732
  239WAT    EPW 1024   3.354   2.651   1.657
  240WAT      O 1025   2.554   2.200   2.471
  240WAT     H1 1026   2.634   2.150   2.458
  240WAT     H2 1027   2.562   2.274   2.412
  240WAT    EPW 1028   2.566   2.203   2.462
  241WAT      O 1029   2.913   2.221   2.676
  241WAT     H1 1030   2.820   2.209   2.692
  241WAT     H2 1031   2.944   2.272   2.751
  241WAT    EPW 1032   2.905   2.226   2.688
  242WAT      O 1033   2.115   2.101   3.599
  242WAT     H1 1034   2.166   2.020   3.602
  242WAT     H2 1035   2.079   2.111   3.687
  242WAT    EPW 1036   2.117   2.092   3.611
  243WAT      O 1037   2.585   1.949   3.587
  243WAT     H1 1038   2.491   1.953   3.606
  243WAT     H2 1039   2.610   1.859   3.610
  243WAT    EPW 1040   2.576   1.937   3.593
  244WAT      O 1041   1.872   3.848   0.967
  244WAT     H1 1042   1.815   3.912   1.010
  244WAT     H2 1043   1.960   3.866   1.002
  244WAT    EPW 1044   1.876   3.859   0.977
  245WAT      O 1045   2.255   2.710   2.069
  245WAT     H1 1046   2.177   2.712   2.014
  245WAT     H2 1047   2.224   2.681   2.154
  245WAT    EPW 1048   2.241   2.706   2.073
  246WAT      O 1049   2.023   2.720   1.925
  246WAT     H1 1050   1.980   2.748   2.006
  246WAT     H2 1051   2.015   2.625   1.926
  246WAT    EPW 1052   2.016   2.711   1.936
  247WAT      O 1053   1.640   3.403   2.881
  247WAT     H1 1054   1.547   3.412   2.862
  247WAT     H2 1055   1.657   3.466   2.951
  247WAT    EPW 1056   1.630   3.413   2.888
  248WAT      O 1057   1.087   3.810   3.820
  248WAT     H1 1058   1.175   3.833   3.852
  248WAT     H2 1059   1.047   3.762   3.893
  248WAT    EPW 1060   1.094   3.807   3.834
  249WAT      O 1061   1.565   0.869   2.502
  249WAT     H1 1062   1.510   0.943   2.529
  249WAT     H2 1063   1.652   0.892   2.533
  249WAT    EPW 1064   1.569   0.882   2.510
  250WAT      O 1065   3.023   3.421   3.185
  250WAT     H1 1066   3.111   3.451   3.208
  250WAT     H2 1067   2.971   3.502   3.177
  250WAT    EPW 1068   3.027   3.436   3.187
  251WAT      O 1069   3.603   3.809   2.324
  251WAT     H1 1070   3.589   3.883   2.383
  251WAT     H2 1071   3.622   3.735   2.382
  251WAT    EPW 1072   3.604   3.809   2.340
  252WAT      O 1073   0.470   1.178   2.725
  252WAT     H1 1074   0.397   1.224   2.684
  252WAT     H2 1075   0.547   1.230   2.703
  252WAT    EPW 1076   0.470   1.191   2.717
  253WAT      O 1077   2.479   1.106   3.256
  253WAT     H1 1078   2.473   1.129   3.163
  253WAT     H2 1079   2.448   1.015   3.260
  253WAT    EPW 1080   2.474   1.097   3.244
  254WAT      O 1081   2.837   1.207   3.225
  254WAT     H1 1082   2.816   1.142   3.157
  254WAT     H2 1083   2.870   1.155   3.298
  254WAT    EPW 1084   2.838   1.192   3.225
  255WAT      O 1085   2.039   0.795   1.638
  255WAT     H1 1086   2.047   0.733   1.711
  255WAT     H2 1087   2.110   0.858   1.653
  255WAT    EPW 1088   2.050   0.795   1.650
  256WAT      O 1089   0.982   0.502   3.007
  256WAT     H1 1090   1.054   0.465   3.059
  256WAT     H2 1091   1.009   0.592   2.990
  256WAT    EPW 1092   0.995   0.509   3.012
  257WAT      O 1093   1.478   1.229   1.927
  257WAT     H1 1094   1.522   1.253   2.009
  257WAT     H2 1095   1.428   1.307   1.903
  257WAT    EPW 1096   1.477   1.242   1.935
  258WAT      O 1097   3.493   2.537   3.194
  258WAT     H1 1098   3.452   2.529   3.280
  258WAT     H2 1099   3.424   2.517   3.131
  258WAT    EPW 1100   3.479   2.534   3.197
  259WAT      O 1101   2.896   0.818   2.464
  259WAT     H1 1102   2.859   0.887   2.409
  259WAT     H2 1103   2.882   0.849   2.553
  259WAT    EPW 1104   2.889   0.831   2.468
  260WAT      O 1105   3.697   1.398   3.819
  260WAT     H1 1106   3.640   1.451   3.764
  260WAT     H2 1107   3.639   1.334   3.859
  260WAT    EPW 1108   3.682   1.397   3.817
  261WAT      O 1109   1.035   1.433   3.748
  261WAT     H1 1110   1.032   1.352   3.798
  261WAT     H2 1111   1.033   1.502   3.815
  261WAT    EPW 1112   1.034   1.432   3.763
  262WAT      O 1113   1.952   0.248   0.627
  262WAT     H1 1114   2.014   0.189   0.669
  262WAT     H2 1115   1.870   0.199   0.623
  262WAT    EPW 1116   1.949   0.234   0.632
  263WAT      O 1117   3.472   1.577   1.825
  263WAT     H1 1118   3.498   1.668   1.840
  263WAT     H2 1119   3.414   1.557   1.898
  263WAT    EPW 1120   3.468   1.587   1.837
  264WAT      O 1121   0.466   2.741   0.987
  264WAT     H1 1122   0.379   2.782   0.988
  264WAT     H2 1123   0.451   2.656   0.946
  264WAT    EPW 1124   0.452   2.735   0.982
  265WAT      O 1125   2.905   2.509   3.600
  265WAT     H1 1126   2.946   2.552   3.674
  265WAT     H2 1127   2.812   2.503   3.624
  265WAT    EPW 1128   2.898   2.514   3.613
  266WAT      O 1129   3.312   1.221   1.180
  266WAT     H1 1130   3.388   1.165   1.167
  266WAT     H2 1131   3.326   1.259   1.267
  266WAT    EPW 1132   3.324   1.219   1.190
  267WAT      O 1133   3.498   1.857   1.882
  267WAT     H1 1134   3.415   1.831   1.843
  267WAT     H2 1135   3.488   1.836   1.975
  267WAT    EPW 1136   3.486   1.850   1.889
  268WAT      O 1137   2.722   2.051   3.066
  268WAT     H1 1138   2.692   2.036   2.976
  268WAT     H2 1139   2.817   2.059   3.058
  268WAT    EPW 1140   2.731   2.050   3.053
  269WAT      O 1141   0.060   2.180   1.152
  269WAT     H1 1142   0.107   2.103   1.184
  269WAT     H2 1143   0.051   2.237   1.229
  269WAT    EPW 1144   0.065   2.178   1.166
  270WAT      O 1145   3.310   2.952   2.721
  270WAT     H1 1146   3.280   3.027   2.772
  270WAT     H2 1147   3.242   2.938   2.656
  270WAT    EPW 1148   3.297   2.960   2.720
  271WAT      O 1149   3.298   0.226   1.983
  271WAT     H1 1150   3.229   0.238   2.049
  271WAT     H2 1151   3.341   0.312   1.979
  271WAT    EPW 1152   3.295   0.239   1.991
  272WAT      O 1153   1.338   2.712   3.843
  272WAT     H1 1154   1.332   2.620   3.818
  272WAT     H2 1155   1.345   2.759   3.760
  272WAT    EPW 1156   1.338   2.706   3.829
  273WAT      O 1157   0.249   2.684   3.760
  273WAT     H1 1158   0.321   2.667   3.699
  273WAT     H2 1159   0.209   2.598   3.774
  273WAT    EPW 1160   0.253   2.671   3.754
  274WAT      O 1161   3.676   3.024   2.906
  274WAT     H1 1162   3.745   3.000   2.843
  274WAT     H2 1163   3.706   3.107   2.943
  274WAT    EPW 1164   3.689   3.032   2.902
  275WAT      O 1165   2.836   1.846   1.234
  275WAT     H1 1166   2.885   1.767   1.214
  275WAT     H2 1167   2.805   1.877   1.149
  275WAT    EPW 1168   2.839   1.840   1.220
  276WAT      O 1169   0.112   2.527   0.729
  276WAT     H1 1170   0.118   2.618   0.701
  276WAT     H2 1171   0.160   2.524   0.812
  276WAT    EPW 1172   0.119   2.538   0.736
  277WAT      O 1173   3.028   1.660   2.318
  277WAT     H1 1174   3.000   1.751   2.306
  277WAT     H2 1175   3.018   1.620   2.232
  277WAT    EPW 1176   3.023   1.667   2.305
  278WAT      O 1177   0.707   1.794   2.619
  278WAT     H1 1178   0.787   1.764   2.662
  278WAT     H2 1179   0.662   1.846   2.686
  278WAT    EPW 1180   0.712   1.797   2.633
  279WAT      O 1181   0.469   3.442   3.142
  279WAT     H1 1182   0.382   3.474   3.165
  279WAT     H2 1183   0.514   3.520   3.107
  279WAT    EPW 1184   0.464   3.457   3.140
  280WAT      O 1185   0.802   1.377   3.325
  280WAT     H1 1186   0.783   1.470   3.314
  280WAT     H2 1187   0.894   1.374   3.351
  280WAT    EPW 1188   0.812   1.389   3.327
  281WAT      O 1189   0.706   1.107   1.724
  281WAT     H1 1190   0.627   1.126   1.673
  281WAT     H2 1191   0.714   1.181   1.783
  281WAT    EPW 1192   0.696   1.119   1.725
  282WAT      O 1193   0.825   2.609   3.529
  282WAT     H1 1194   0.907   2.659   3.538
  282WAT     H2 1195   0.853   2.518   3.527
  282WAT    EPW 1196   0.840   2.604   3.530
  283WAT      O 1197   0.980   4.038   1.305
  283WAT     H1 1198   1.033   4.092   1.246
  283WAT     H2 1199   0.897   4.026   1.258
  283WAT    EPW 1200   0.976   4.043   1.291
  284WAT      O 1201   0.762   0.517   1.936
  284WAT     H1 1202   0.781   0.611   1.934
  284WAT     H2 1203   0.841   0.476   1.900
  284WAT    EPW 1204   0.775   0.524   1.931
  285WAT      O 1205   3.505   2.568   0.875
  285WAT     H1 1206   3.584   2.619   0.893
  285WAT     H2 1207   3.498   2.566   0.780
  285WAT    EPW 1208   3.514   2.574   0.865
  286WAT      O 1209   3.131   2.584   0.727
  286WAT     H1 1210   3.049   2.557   0.686
  286WAT     H2 1211   3.116   2.676   0.751
  286WAT    EPW 1212   3.118   2.593   0.725
  287WAT      O 1213   0.295   2.522   2.137
  287WAT     H1 1214   0.350   2.600   2.143
  287WAT     H2 1215   0.247   2.520   2.221
  287WAT    EPW 1216   0.296   2.532   2.149
  288WAT      O 1217   2.589   3.360   1.430
  288WAT     H1 1218   2.643   3.378   1.352
  288WAT     H2 1219   2.603   3.268   1.448
  288WAT    EPW 1220   2.598   3.351   1.422
  289WAT      O 1221   3.355   1.854   0.736
  289WAT     H1 1222   3.310   1.873   0.818
  289WAT     H2 1223   3.298   1.792   0.691
  289WAT    EPW 1224   3.342   1.848   0.741
  290WAT      O 1225   2.185   3.967   1.820
  290WAT     H1 1226   2.271   3.941   1.854
  290WAT     H2 1227   2.123   3.923   1.878
  290WAT    EPW 1228   2.188   3.958   1.832
  291WAT      O 1229   0.441   1.646   2.523
  291WAT     H1 1230   0.413   1.582   2.589
  291WAT     H2 1231   0.529   1.671   2.549
  291WAT    EPW 1232   0.449   1.641   2.535
  292WAT      O 1233   0.606   2.983   3.146
  292WAT     H1 1234   0.560   2.914   3.098
  292WAT     H2 1235   0.673   2.936   3.196
  292WAT    EPW 1236   0.609   2.967   3.146
  293WAT      O 1237   2.350   3.475   1.509
  293WAT     H1 1238   2.344   3.568   1.486
  293WAT     H2 1239   2.441   3.451   1.489
  293WAT    EPW 1240   2.361   3.484   1.503
  294WAT      O 1241   0.454   0.856   3.497
  294WAT     H1 1242   0.371   0.874   3.543
  294WAT     H2 1243   0.428   0.800   3.424
  294WAT    EPW 1244   0.439   0.851   3.493
  295WAT      O 1245   0.258   2.127   2.148
  295WAT     H1 1246   0.193   2.176   2.198
  295WAT     H2 1247   0.342   2.158   2.181
  295WAT    EPW 1248   0.260   2.138   2.159
  296WAT      O 1249   0.282   3.928   4.059
  296WAT     H1 1250   0.240   3.861   4.113
  296WAT     H2 1251   0.376   3.917   4.076
  296WAT    EPW 1252   0.289   3.918   4.069
  297WAT      O 1253   1.964   1.100   1.860
  297WAT     H1 1254   2.046   1.076   1.816
  297WAT     H2 1255   1.896   1.057   1.809
  297WAT    EPW 1256   1.966   1.091   1.847
  298WAT      O 1257   1.007   0.768   0.451
  298WAT     H1 1258   1.041   0.680   0.434
  298WAT     H2 1259   1.083   0.825   0.440
  298WAT    EPW 1260   1.022   0.764   0.447
  299WAT      O 1261   0.970   1.358   2.770
  299WAT     H1 1262   0.915   1.292   2.813
  299WAT     H2 1263   1.047   1.365   2.826
  299WAT    EPW 1264   0.973   1.350   2.783
  300WAT      O 1265   2.712   1.304   1.080
  300WAT     H1 1266   2.737   1.266   0.995
  300WAT     H2 1267   2.703   1.228   1.138
  300WAT    EPW 1268   2.714   1.289   1.076
  301WAT      O 1269   2.864   3.467   2.419
  301WAT     H1 1270   2.772   3.460   2.393
  301WAT     H2 1271   2.907   3.511   2.346
  301WAT    EPW 1272   2.857   3.472   2.406
  302WAT      O 1273   0.875   2.393   2.694
  302WAT     H1 1274   0.859   2.483   2.721
  302WAT     H2 1275   0.816   2.341   2.748
  302WAT    EPW 1276   0.865   2.398   2.705
  303WAT      O 1277   0.872   0.279   2.219
  303WAT     H1 1278   0.788   0.295   2.262
  303WAT     H2 1279   0.936   0.321   2.277
  303WAT    EPW 1280   0.870   0.287   2.233
  304WAT      O 1281   0.784   1.300   3.659
  304WAT     H1 1282   0.793   1.213   3.696
  304WAT     H2 1283   0.874   1.329   3.644
  304WAT    EPW 1284   0.797   1.293   3.662
  305WAT      O 1285   2.982   1.087   0.314
  305WAT     H1 1286   2.982   1.147   0.388
  305WAT     H2 1287   3.070   1.094   0.276
  305WAT    EPW 1288   2.993   1.096   0.319
  306WAT      O 1289   1.327   0.007   3.108
  306WAT     H1 1290   1.328   0.009   3.203
  306WAT     H2 1291   1.309  -0.084   3.086
  306WAT    EPW 1292   1.325  -0.005   3.117
  307WAT      O 1293   3.404   3.736   3.782
  307WAT     H1 1294   3.434   3.764   3.868
  307WAT     H2 1295   3.398   3.640   3.788
  307WAT    EPW 1296   3.407   3.727   3.794
  308WAT      O 1297   3.258   2.299   1.930
  308WAT     H1 1298   3.167   2.325   1.944
  308WAT     H2 1299   3.300   2.377   1.896
  308WAT    EPW 1300   3.251   2.312   1.927
  309WAT      O 1301   1.041   3.647   1.746
  309WAT     H1 1302   1.035   3.563   1.792
  309WAT     H2 1303   0.994   3.633   1.664
  309WAT    EPW 1304   1.034   3.634   1.742
  310WAT      O 1305   0.717   2.607   3.188
  310WAT     H1 1306   0.650   2.578   3.250
  310WAT     H2 1307   0.790   2.546   3.200
  310WAT    EPW 1308   0.718   2.595   3.198
  311WAT      O 1309   0.045   3.218   0.645
  311WAT     H1 1310   0.058   3.299   0.693
  311WAT     H2 1311   0.134   3.189   0.622
  311WAT    EPW 1312   0.059   3.225   0.648
  312WAT      O 1313   0.118   1.469   1.853
  312WAT     H1 1314   0.154   1.468   1.764
  312WAT     H2 1315   0.033   1.426   1.845
  312WAT    EPW 1316   0.112   1.463   1.840
  313WAT      O 1317   2.368   1.407   0.351
  313WAT     H1 1318   2.355   1.474   0.418
  313WAT     H2 1319   2.463   1.396   0.347
  313WAT    EPW 1320   2.379   1.415   0.359
  314WAT      O 1321   1.059   2.082   1.036
  314WAT     H1 1322   1.105   2.166   1.036
  314WAT     H2 1323   1.083   2.042   1.119
  314WAT    EPW 1324   1.068   2.088   1.047
  315WAT      O 1325   1.111   0.067   3.897
  315WAT     H1 1326   1.177   0.034   3.957
  315WAT     H2 1327   1.043   0.000   3.897
  315WAT    EPW 1328   1.110   0.054   3.905
  316WAT      O 1329   2.927   1.323   0.504
  316WAT     H1 1330   2.880   1.379   0.443
  316WAT     H2 1331   2.975   1.383   0.560
  316WAT    EPW 1332   2.927   1.338   0.503
  317WAT      O 1333   1.514   3.941   0.633
  317WAT     H1 1334   1.503   4.036   0.642
  317WAT     H2 1335   1.463   3.918   0.555
  317WAT    EPW 1336   1.506   3.951   0.624
  318WAT      O 1337   1.956   3.261   1.135
  318WAT     H1 1338   1.912   3.225   1.058
  318WAT     H2 1339   2.008   3.188   1.170
  318WAT    EPW 1340   1.957   3.247   1.130
  319WAT      O 1341   0.664   2.161   1.982
  319WAT     H1 1342   0.712   2.243   1.968
  319WAT     H2 1343   0.590   2.186   2.036
  319WAT    EPW 1344   0.661   2.175   1.987
  320WAT      O 1345   0.244   3.791   2.244
  320WAT     H1 1346   0.317   3.774   2.184
  320WAT     H2 1347   0.167   3.763   2.195
  320WAT    EPW 1348   0.244   3.785   2.229
  321WAT      O 1349   1.367   2.815   3.552
  321WAT     H1 1350   1.365   2.866   3.472
  321WAT     H2 1351   1.458   2.787   3.560
  321WAT    EPW 1352   1.378   2.818   3.543
  322WAT      O 1353   1.945   4.084   1.452
  322WAT     H1 1354   1.871   4.111   1.397
  322WAT     H2 1355   1.907   4.063   1.537
  322WAT    EPW 1356   1.931   4.085   1.456
  323WAT      O 1357   1.585   2.421   0.338
  323WAT     H1 1358   1.493   2.443   0.321
  323WAT     H2 1359   1.583   2.331   0.371
  323WAT    EPW 1360   1.573   2.412   0.340
  324WAT      O 1361   1.829   1.197   2.877
  324WAT     H1 1362   1.900   1.220   2.818
  324WAT     H2 1363   1.869   1.137   2.940
  324WAT    EPW 1364   1.843   1.192   2.878
  325WAT      O 1365   0.637   3.229   0.267
  325WAT     H1 1366   0.590   3.236   0.184
  325WAT     H2 1367   0.723   3.195   0.242
  325WAT    EPW 1368   0.642   3.225   0.253
  326WAT      O 1369   2.778   2.699   0.074
  326WAT     H1 1370   2.701   2.740   0.114
  326WAT     H2 1371   2.843   2.769   0.070
  326WAT    EPW 1372   2.776   2.714   0.079
  327WAT      O 1373   0.836   0.120   0.088
  327WAT     H1 1374   0.838   0.085  -0.000
  327WAT     H2 1375   0.917   0.171   0.096
  327WAT    EPW 1376   0.847   0.122   0.078
  328WAT      O 1377   3.050   0.493   1.526
  328WAT     H1 1378   3.129   0.439   1.522
  328WAT     H2 1379   3.060   0.544   1.607
  328WAT    EPW 1380   3.062   0.493   1.536
  329WAT      O 1381   1.660   2.989   3.177
  329WAT     H1 1382   1.702   3.046   3.114
  329WAT     H2 1383   1.718   2.913   3.184
  329WAT    EPW 1384   1.673   2.986   3.170
  330WAT      O 1385   2.607   1.305   2.226
  330WAT     H1 1386   2.674   1.261   2.278
  330WAT     H2 1387   2.621   1.398   2.241
  330WAT    EPW 1388   2.617   1.311   2.235
  331WAT      O 1389   1.486   3.322   3.210
  331WAT     H1 1390   1.444   3.407   3.209
  331WAT     H2 1391   1.572   3.338   3.249
  331WAT    EPW 1392   1.492   3.335   3.215
  332WAT      O 1393   2.424   0.380   2.379
  332WAT     H1 1394   2.510   0.374   2.336
  332WAT     H2 1395   2.402   0.473   2.372
  332WAT    EPW 1396   2.433   0.392   2.372
  333WAT      O 1397   0.077   1.930   2.399
  333WAT     H1 1398   0.140   1.890   2.459
  333WAT     H2 1399   0.131   1.987   2.343
  333WAT    EPW 1400   0.092   1.932   2.399
  334WAT      O 1401   3.119   1.697   2.987
  334WAT     H1 1402   3.111   1.714   3.081
  334WAT     H2 1403   3.184   1.760   2.957
  334WAT    EPW 1404   3.126   1.707   2.996
  335WAT      O 1405   0.489   0.995   2.322
  335WAT     H1 1406   0.496   0.923   2.259
  335WAT     H2 1407   0.405   1.036   2.302
  335WAT    EPW 1408   0.479   0.991   2.311
  336WAT      O 1409   2.545   2.834   0.196
  336WAT     H1 1410   2.568   2.914   0.244
  336WAT     H2 1411   2.527   2.864   0.107
  336WAT    EPW 1412   2.546   2.849   0.190
  337WAT      O 1413   3.548   1.195   3.972
  337WAT     H1 1414   3.529   1.246   4.051
  337WAT     H2 1415   3.616   1.134   3.999
  337WAT    EPW 1416   3.554   1.194   3.986
  338WAT      O 1417   0.262   1.296   0.978
  338WAT     H1 1418   0.344   1.248   0.969
  338WAT     H2 1419   0.197   1.239   0.938
  338WAT    EPW 1420   0.264   1.282   0.972
  339WAT      O 1421   1.997   3.652   3.448
  339WAT     H1 1422   1.978   3.675   3.358
  339WAT     H2 1423   1.952   3.719   3.500
  339WAT    EPW 1424   1.989   3.664   3.443
  340WAT      O 1425   3.222   4.071   0.012
  340WAT     H1 1426   3.311   4.076   0.048
  340WAT     H2 1427   3.226   4.123  -0.068
  340WAT    EPW 1428   3.234   4.078   0.006
  341WAT      O 1429   0.875   2.107   0.825
  341WAT     H1 1430   0.929   2.087   0.901
  341WAT     H2 1431   0.801   2.156   0.860
  341WAT    EPW 1432   0.872   2.111   0.839
  342WAT      O 1433   0.608   1.554   3.576
  342WAT     H1 1434   0.700   1.580   3.575
  342WAT     H2 1435   0.573   1.591   3.657
  342WAT    EPW 1436   0.616   1.562   3.587
  343WAT      O 1437   1.727   0.070   0.560
  343WAT     H1 1438   1.688   0.014   0.494
  343WAT     H2 1439   1.657   0.086   0.624
  343WAT    EPW 1440   1.713   0.065   0.560
  344WAT      O 1441   2.565   2.184   3.730
  344WAT     H1 1442   2.520   2.253   3.681
  344WAT     H2 1443   2.586   2.118   3.664
  344WAT    EPW 1444   2.562   2.184   3.715
  345WAT      O 1445   0.931   3.662   4.044
  345WAT     H1 1446   0.926   3.588   3.983
  345WAT     H2 1447   0.976   3.627   4.121
  345WAT    EPW 1448   0.936   3.648   4.046
  346WAT      O 1449   1.323   2.570   0.422
  346WAT     H1 1450   1.355   2.650   0.463
  346WAT     H2 1451   1.236   2.557   0.460
  346WAT    EPW 1452   1.315   2.579   0.432
  347WAT      O 1453   1.269   1.314   1.617
  347WAT     H1 1454   1.216   1.383   1.577
  347WAT     H2 1455   1.232   1.232   1.582
  347WAT    EPW 1456   1.257   1.312   1.607
  348WAT      O 1457   0.268   1.139   3.463
  348WAT     H1 1458   0.267   1.163   3.370
  348WAT     H2 1459   0.179   1.157   3.493
  348WAT    EPW 1460   0.256   1.145   3.455
  349WAT      O 1461   0.332   3.493   1.608
  349WAT     H1 1462   0.345   3.580   1.570
  349WAT     H2 1463   0.240   3.474   1.591
  349WAT    EPW 1464   0.322   3.502   1.601
  350WAT      O 1465   0.644   2.816   1.705
  350WAT     H1 1466   0.637   2.802   1.610
  350WAT     H2 1467   0.738   2.826   1.721
  350WAT    EPW 1468   0.656   2.816   1.695
  351WAT      O 1469   2.801   0.510   3.952
  351WAT     H1 1470   2.848   0.488   4.032
  351WAT     H2 1471   2.709   0.514   3.977
  351WAT    EPW 1472   2.795   0.508   3.966
  352WAT      O 1473   3.297   0.765   1.224
  352WAT     H1 1474   3.356   0.825   1.270
  352WAT     H2 1475   3.355   0.714   1.167
  352WAT    EPW 1476   3.313   0.766   1.222
  353WAT      O 1477   2.941   4.109   2.256
  353WAT     H1 1478   2.899   4.183   2.300
  353WAT     H2 1479   2.995   4.068   2.323
  353WAT    EPW 1480   2.942   4.114   2.271
  354WAT      O 1481   3.333   3.027   0.025
  354WAT     H1 1482   3.307   2.941  -0.008
  354WAT     H2 1483   3.324   3.086  -0.050
  354WAT    EPW 1484   3.329   3.023   0.010
  355WAT      O 1485   2.978   2.236   0.978
  355WAT     H1 1486   3.068   2.271   0.978
  355WAT     H2 1487   2.976   2.175   1.051
  355WAT    EPW 1488   2.990   2.233   0.988
  356WAT      O 1489   0.793   2.492   1.670
  356WAT     H1 1490   0.732   2.508   1.742
  356WAT     H2 1491   0.870   2.454   1.713
  356WAT    EPW 1492   0.795   2.489   1.685
  357WAT      O 1493   1.391   0.781   3.786
  357WAT     H1 1494   1.297   0.796   3.774
  357WAT     H2 1495   1.397   0.687   3.806
  357WAT    EPW 1496   1.379   0.770   3.787
  358WAT      O 1497   3.352   2.108   1.506
  358WAT     H1 1498   3.285   2.042   1.488
  358WAT     H2 1499   3.434   2.059   1.505
  358WAT    EPW 1500   3.354   2.093   1.503
  359WAT      O 1501   2.172   1.223   0.289
  359WAT     H1 1502   2.214   1.309   0.292
  359WAT     H2 1503   2.231   1.169   0.238
  359WAT    EPW 1504   2.185   1.228   0.283
  360WAT      O 1505   0.200   3.581   0.672
  360WAT     H1 1506   0.246   3.659   0.701
  360WAT     H2 1507   0.268   3.522   0.641
  360WAT    EPW 1508   0.215   3.584   0.672
  361WAT      O 1509   0.762   1.789   3.872
  361WAT     H1 1510   0.852   1.756   3.884
  361WAT     H2 1511   0.727   1.794   3.961
  361WAT    EPW 1512   0.770   1.785   3.885
  362WAT      O 1513   3.134   3.459   1.073
  362WAT     H1 1514   3.205   3.445   1.011
  362WAT     H2 1515   3.134   3.380   1.128
  362WAT    EPW 1516   3.143   3.447   1.072
  363WAT      O 1517   1.792   3.055   4.022
  363WAT     H1 1518   1.758   2.998   4.091
  363WAT     H2 1519   1.741   3.031   3.944
  363WAT    EPW 1520   1.781   3.045   4.021
  364WAT      O 1521   2.519   3.080   0.703
  364WAT     H1 1522   2.557   3.049   0.621
  364WAT     H2 1523   2.536   3.175   0.703
  364WAT    EPW 1524   2.527   3.089   0.692
  365WAT      O 1525   3.133   1.967   0.891
  365WAT     H1 1526   3.173   1.947   0.975
  365WAT     H2 1527   3.039   1.965   0.909
  365WAT    EPW 1528   3.126   1.964   0.904
  366WAT      O 1529   3.624   2.328   0.137
  366WAT     H1 1530   3.602   2.420   0.123
  366WAT     H2 1531   3.691   2.309   0.071
  366WAT    EPW 1532   3.630   2.338   0.127
  367WAT      O 1533   3.580   3.613   1.306
  367WAT     H1 1534   3.549   3.694   1.346
  367WAT     H2 1535   3.602   3.557   1.380
  367WAT    EPW 1536   3.579   3.617   1.321
  368WAT      O 1537   2.482   3.777   4.003
  368WAT     H1 1538   2.539   3.836   4.052
  368WAT     H2 1539   2.521   3.690   4.015
  368WAT    EPW 1540   2.495   3.774   4.011
  369WAT      O 1541   2.422   1.014   2.509
  369WAT     H1 1542   2.478   1.089   2.493
  369WAT     H2 1543   2.333   1.049   2.508
  369WAT    EPW 1544   2.418   1.028   2.507
  370WAT      O 1545   1.773   0.350   3.767
  370WAT     H1 1546   1.724   0.382   3.844
  370WAT     H2 1547   1.799   0.430   3.721
  370WAT    EPW 1548   1.770   0.365   3.771
  371WAT      O 1549   3.262   2.630   0.461
  371WAT     H1 1550   3.304   2.589   0.537
  371WAT     H2 1551   3.169   2.619   0.477
  371WAT    EPW 1552   3.256   2.623   0.473
  372WAT      O 1553   2.653   2.240   0.686
  372WAT     H1 1554   2.568   2.285   0.688
  372WAT     H2 1555   2.655   2.188   0.767
  372WAT    EPW 1556   2.642   2.239   0.697
  373WAT      O 1557   0.056   2.125   3.311
  373WAT     H1 1558   0.129   2.084   3.356
  373WAT     H2 1559   0.016   2.183   3.377
  373WAT    EPW 1560   0.060   2.127   3.326
  374WAT      O 1561   0.464   3.745   2.049
  374WAT     H1 1562   0.416   3.729   1.968
  374WAT     H2 1563   0.555   3.725   2.028
  374WAT    EPW 1564   0.469   3.740   2.036
  375WAT      O 1565   0.901   0.682   2.639
  375WAT     H1 1566   0.954   0.754   2.604
  375WAT     H2 1567   0.877   0.711   2.727
  375WAT    EPW 1568   0.905   0.695   2.646
  376WAT      O 1569   0.970   0.129   0.489
  376WAT     H1 1570   0.996   0.221   0.479
  376WAT     H2 1571   0.927   0.107   0.406
  376WAT    EPW 1572   0.968   0.139   0.477
  377WAT      O 1573   0.487   1.430   1.718
  377WAT     H1 1574   0.498   1.468   1.805
  377WAT     H2 1575   0.574   1.436   1.678
  377WAT    EPW 1576   0.500   1.436   1.724
  378WAT      O 1577   3.228   1.288   2.450
  378WAT     H1 1578   3.291   1.260   2.516
  378WAT     H2 1579   3.146   1.246   2.476
  378WAT    EPW 1580   3.226   1.279   2.462
  379WAT      O 1581   1.110   2.639   1.428
  379WAT     H1 1582   1.173   2.711   1.440
  379WAT     H2 1583   1.074   2.624   1.515
  379WAT    EPW 1584   1.114   2.647   1.441
  380WAT      O 1585   3.766   1.441   1.478
  380WAT     H1 1586   3.846   1.457   1.529
  380WAT     H2 1587   3.711   1.517   1.495
  380WAT    EPW 1588   3.770   1.453   1.487
  381WAT      O 1589   3.374   3.644   2.201
  381WAT     H1 1590   3.422   3.725   2.216
  381WAT     H2 1591   3.369   3.602   2.287
  381WAT    EPW 1592   3.380   3.649   2.214
  382WAT      O 1593   0.756   1.142   0.582
  382WAT     H1 1594   0.702   1.215   0.553
  382WAT     H2 1595   0.845   1.177   0.584
  382WAT    EPW 1596   0.761   1.156   0.579
  383WAT      O 1597   2.657   1.818   2.607
  383WAT     H1 1598   2.579   1.809   2.553
  383WAT     H2 1599   2.648   1.751   2.674
  383WAT    EPW 1600   2.645   1.808   2.609
  384WAT      O 1601   0.958   1.803   0.438
  384WAT     H1 1602   0.931   1.831   0.526
  384WAT     H2 1603   0.962   1.884   0.387
  384WAT    EPW 1604   0.955   1.817   0.443
  385WAT      O 1605   3.414   3.829   4.033
  385WAT     H1 1606   3.461   3.886   4.094
  385WAT     H2 1607   3.340   3.882   4.004
  385WAT    EPW 1608   3.410   3.843   4.037
  386WAT      O 1609   2.105   3.582   0.664
  386WAT     H1 1610   2.095   3.579   0.759
  386WAT     H2 1611   2.186   3.534   0.647
  386WAT    EPW 1612   2.114   3.575   0.675
  387WAT      O 1613   0.099   3.523   4.009
  387WAT     H1 1614   0.176   3.469   4.026
  387WAT     H2 1615   0.101   3.590   4.077
  387WAT    EPW 1616   0.109   3.525   4.020
  388WAT      O 1617   2.039   4.070   0.156
  388WAT     H1 1618   2.051   3.987   0.203
  388WAT     H2 1619   2.034   4.135   0.226
  388WAT    EPW 1620   2.040   4.067   0.172
  389WAT      O 1621   1.469   0.954   0.089
  389WAT     H1 1622   1.388   0.990   0.052
  389WAT     H2 1623   1.487   1.011   0.165
  389WAT    EPW 1624   1.460   0.966   0.094
  390WAT      O 1625   3.239   2.905   0.532
  390WAT     H1 1626   3.249   2.816   0.498
  390WAT     H2 1627   3.322   2.923   0.576
  390WAT    EPW 1628   3.251   2.896   0.533
  391WAT      O 1629   0.362   1.691   0.533
  391WAT     H1 1630   0.364   1.696   0.629
  391WAT     H2 1631   0.454   1.690   0.507
  391WAT    EPW 1632   0.375   1.692   0.542
  392WAT      O 1633   0.356   1.929   3.132
  392WAT     H1 1634   0.267   1.900   3.112
  392WAT     H2 1635   0.389   1.964   3.050
  392WAT    EPW 1636   0.348   1.930   3.119
  393WAT      O 1637   1.461   1.487   3.593
  393WAT     H1 1638   1.477   1.582   3.600
  393WAT     H2 1639   1.405   1.479   3.516
  393WAT    EPW 1640   1.456   1.499   3.584
  394WAT      O 1641   1.970   2.867   2.573
  394WAT     H1 1642   1.933   2.785   2.541
  394WAT     H2 1643   1.903   2.933   2.556
  394WAT    EPW 1644   1.957   2.865   2.567
  395WAT      O 1645   3.707   4.060   0.407
  395WAT     H1 1646   3.642   4.032   0.472
  395WAT     H2 1647   3.665   4.044   0.323
  395WAT    EPW 1648   3.693   4.054   0.404
  396WAT      O 1649   1.433   1.875   1.062
  396WAT     H1 1650   1.415   1.830   1.145
  396WAT     H2 1651   1.476   1.957   1.088
  396WAT    EPW 1652   1.436   1.880   1.076
  397WAT      O 1653   0.856   0.604   0.634
  397WAT     H1 1654   0.854   0.652   0.552
  397WAT     H2 1655   0.767   0.611   0.669
  397WAT    EPW 1656   0.844   0.611   0.628
  398WAT      O 1657   0.713   0.325   3.724
  398WAT     H1 1658   0.631   0.335   3.772
  398WAT     H2 1659   0.759   0.408   3.740
  398WAT    EPW 1660   0.708   0.338   3.733
  399WAT      O 1661   2.540   3.935   3.724
  399WAT     H1 1662   2.621   3.900   3.760
  399WAT     H2 1663   2.473   3.912   3.789
  399WAT    EPW 1664   2.541   3.927   3.738
  400WAT      O 1665   0.993   0.407   1.823
  400WAT     H1 1666   1.054   0.481   1.823
  400WAT     H2 1667   0.967   0.397   1.732
  400WAT    EPW 1668   0.997   0.416   1.811
  401WAT      O 1669   0.523   1.738   1.325
  401WAT     H1 1670   0.506   1.644   1.317
  401WAT     H2 1671   0.613   1.748   1.297
  401WAT    EPW 1672   0.532   1.727   1.320
  402WAT      O 1673   3.389   4.079   2.421
  402WAT     H1 1674   3.345   3.995   2.432
  402WAT     H2 1675   3.382   4.098   2.328
  402WAT    EPW 1676   3.382   4.071   2.410
  403WAT      O 1677   0.695   2.799   2.049
  403WAT     H1 1678   0.715   2.735   1.980
  403WAT     H2 1679   0.666   2.877   2.002
  403WAT    EPW 1680   0.694   2.801   2.033
  404WAT      O 1681   1.698   2.947   2.774
  404WAT     H1 1682   1.774   2.891   2.792
  404WAT     H2 1683   1.623   2.889   2.787
  404WAT    EPW 1684   1.698   2.932   2.778
  405WAT      O 1685   3.377   1.081   3.680
  405WAT     H1 1686   3.334   1.005   3.641
  405WAT     H2 1687   3.457   1.047   3.718
  405WAT    EPW 1688   3.382   1.067   3.680
  406WAT      O 1689   3.044   0.968   1.939
  406WAT     H1 1690   2.995   1.050   1.932
  406WAT     H2 1691   3.121   0.991   1.992
  406WAT    EPW 1692   3.048   0.982   1.945
  407WAT      O 1693   3.134   3.037   0.854
  407WAT     H1 1694   3.074   3.054   0.781
  407WAT     H2 1695   3.181   2.957   0.828
  407WAT    EPW 1696   3.132   3.029   0.841
  408WAT      O 1697   0.973   1.269   3.968
  408WAT     H1 1698   0.957   1.181   4.003
  408WAT     H2 1699   0.885   1.306   3.957
  408WAT    EPW 1700   0.959   1.262   3.971
  409WAT      O 1701   3.544   2.130   1.866
  409WAT     H1 1702   3.582   2.143   1.953
  409WAT     H2 1703   3.538   2.035   1.855
  409WAT    EPW 1704   3.548   2.120   1.876
  410WAT      O 1705   3.559   1.088   0.722
  410WAT     H1 1706   3.542   1.004   0.764
  410WAT     H2 1707   3.492   1.095   0.654
  410WAT    EPW 1708   3.548   1.078   0.719
  411WAT      O 1709   2.763   3.218   1.931
  411WAT     H1 1710   2.778   3.312   1.937
  411WAT     H2 1711   2.745   3.191   2.021
  411WAT    EPW 1712   2.762   3.227   1.944
  412WAT      O 1713   2.579   2.144   0.424
  412WAT     H1 1714   2.606   2.201   0.496
  412WAT     H2 1715   2.520   2.198   0.371
  412WAT    EPW 1716   2.575   2.159   0.426
  413WAT      O 1717   1.783   3.191   2.626
  413WAT     H1 1718   1.707   3.249   2.616
  413WAT     H2 1719   1.747   3.112   2.666
  413WAT    EPW 1720   1.768   3.188   2.630
  414WAT      O 1721   1.184   3.625   0.392
  414WAT     H1 1722   1.241   3.649   0.320
  414WAT     H2 1723   1.215   3.539   0.420
  414WAT    EPW 1724   1.195   3.617   0.386
  415WAT      O 1725   3.522   1.716   2.673
  415WAT     H1 1726   3.586   1.714   2.744
  415WAT     H2 1727   3.566   1.766   2.603
  415WAT    EPW 1728   3.537   1.722   2.673
  416WAT      O 1729   2.212   1.753   4.023
  416WAT     H1 1730   2.288   1.706   3.988
  416WAT     H2 1731   2.204   1.721   4.113
  416WAT    EPW 1732   2.221   1.742   4.030
  417WAT      O 1733   0.438   4.105   3.831
  417WAT     H1 1734   0.470   4.124   3.919
  417WAT     H2 1735   0.360   4.051   3.845
  417WAT    EPW 1736   0.432   4.100   3.845
  418WAT      O 1737   2.235   3.884   3.813
  418WAT     H1 1738   2.258   3.870   3.721
  418WAT     H2 1739   2.217   3.978   3.819
  418WAT    EPW 1740   2.236   3.894   3.802
  419WAT      O 1741   0.959   2.603   2.335
  419WAT     H1 1742   1.002   2.571   2.255
  419WAT     H2 1743   0.974   2.697   2.335
  419WAT    EPW 1744   0.966   2.611   2.324
  420WAT      O 1745   2.802   2.857   1.259
  420WAT     H1 1746   2.713   2.825   1.243
  420WAT     H2 1747   2.822   2.910   1.182
  420WAT    EPW 1748   2.792   2.860   1.247
  421WAT      O 1749   2.282   3.424   0.239
  421WAT     H1 1750   2.189   3.402   0.232
  421WAT     H2 1751   2.327   3.355   0.191
  421WAT    EPW 1752   2.275   3.412   0.232
  422WAT      O 1753   3.215   0.480   0.399
  422WAT     H1 1754   3.260   0.395   0.407
  422WAT     H2 1755   3.197   0.506   0.489
  422WAT    EPW 1756   3.219   0.472   0.412
  423WAT      O 1757   3.269   0.731   2.501
  423WAT     H1 1758   3.227   0.810   2.534
  423WAT     H2 1759   3.323   0.700   2.574
  423WAT    EPW 1760   3.271   0.737   2.515
  424WAT      O 1761   3.600   1.585   1.046
  424WAT     H1 1762   3.689   1.565   1.019
  424WAT     H2 1763   3.562   1.633   0.972
  424WAT    EPW 1764   3.607   1.589   1.033
  425WAT      O 1765   0.800   0.585   1.231
  425WAT     H1 1766   0.753   0.557   1.152
  425WAT     H2 1767   0.881   0.624   1.197
  425WAT    EPW 1768   0.805   0.587   1.216
  426WAT      O 1769   0.899   2.031   0.043
  426WAT     H1 1770   0.820   2.083   0.027
  426WAT     H2 1771   0.901   2.021   0.139
  426WAT    EPW 1772   0.888   2.037   0.054
  427WAT      O 1773   0.135   2.644   2.828
  427WAT     H1 1774   0.186   2.609   2.754
  427WAT     H2 1775   0.186   2.718   2.860
  427WAT    EPW 1776   0.148   2.649   2.823
  428WAT      O 1777   1.042   2.997   3.445
  428WAT     H1 1778   0.997   3.081   3.451
  428WAT     H2 1779   0.975   2.937   3.411
  428WAT    EPW 1780   1.027   3.000   3.441
  429WAT      O 1781   3.743   1.702   1.800
  429WAT     H1 1782   3.805   1.634   1.827
  429WAT     H2 1783   3.734   1.758   1.877
  429WAT    EPW 1784   3.750   1.701   1.814
  430WAT      O 1785   0.570   1.452   0.871
  430WAT     H1 1786   0.610   1.489   0.792
  430WAT     H2 1787   0.615   1.368   0.884
  430WAT    EPW 1788   0.581   1.446   0.862
  431WAT      O 1789   3.092   3.343   2.928
  431WAT     H1 1790   3.043   3.352   3.010
  431WAT     H2 1791   3.025   3.353   2.860
  431WAT    EPW 1792   3.077   3.346   2.930
  432WAT      O 1793   3.039   0.507   1.934
  432WAT     H1 1794   3.026   0.436   1.872
  432WAT     H2 1795   2.964   0.502   1.993
  432WAT    EPW 1796   3.028   0.497   1.933
  433WAT      O 1797   0.073   3.306   2.532
  433WAT     H1 1798   0.012   3.246   2.576
  433WAT     H2 1799   0.120   3.249   2.470
  433WAT    EPW 1800   0.071   3.290   2.529
  434WAT      O 1801   1.164   1.962   4.084
  434WAT     H1 1802   1.165   1.922   3.997
  434WAT     H2 1803   1.074   1.994   4.095
  434WAT    EPW 1804   1.152   1.961   4.074
  435WAT      O 1805   2.289   2.624   3.317
  435WAT     H1 1806   2.372   2.590   3.284
  435WAT     H2 1807   2.224   2.561   3.286
  435WAT    EPW 1808   2.291   2.611   3.308
  436WAT      O 1809   2.099   0.529   3.867
  436WAT     H1 1810   2.059   0.474   3.935
  436WAT     H2 1811   2.113   0.613   3.910
  436WAT    EPW 1812   2.095   0.533   3.882
  437WAT      O 1813   1.731   3.754   2.189
  437WAT     H1 1814   1.766   3.727   2.274
  437WAT     H2 1815   1.774   3.696   2.127
  437WAT    EPW 1816   1.742   3.743   2.192
  438WAT      O 1817   1.725   4.147   1.291
  438WAT     H1 1818   1.734   4.151   1.195
  438WAT     H2 1819   1.634   4.120   1.305
  438WAT    EPW 1820   1.714   4.144   1.280
  439WAT      O 1821   1.631   3.815   2.706
  439WAT     H1 1822   1.578   3.895   2.707
  439WAT     H2 1823   1.709   3.837   2.756
  439WAT    EPW 1824   1.634   3.828   2.712
  440WAT      O 1825   1.538   2.590   2.666
  440WAT     H1 1826   1.460   2.556   2.710
  440WAT     H2 1827   1.505   2.635   2.589
  440WAT    EPW 1828   1.523   2.591   2.662
  441WAT      O 1829   2.517   1.457   0.983
  441WAT     H1 1830   2.567   1.392   1.033
  441WAT     H2 1831   2.557   1.454   0.896
  441WAT    EPW 1832   2.529   1.448   0.978
  442WAT      O 1833   1.996   0.481   0.440
  442WAT     H1 1834   2.005   0.410   0.503
  442WAT     H2 1835   1.931   0.540   0.478
  442WAT    EPW 1836   1.989   0.479   0.453
  443WAT      O 1837   1.473   2.785   3.148
  443WAT     H1 1838   1.538   2.855   3.153
  443WAT     H2 1839   1.422   2.805   3.069
  443WAT    EPW 1840   1.475   2.797   3.138
  444WAT      O 1841   2.424   1.067   2.920
  444WAT     H1 1842   2.459   1.005   2.856
  444WAT     H2 1843   2.383   1.135   2.866
  444WAT    EPW 1844   2.423   1.067   2.904
  445WAT      O 1845   2.800   2.052   2.479
  445WAT     H1 1846   2.758   2.011   2.554
  445WAT     H2 1847   2.866   2.110   2.517
  445WAT    EPW 1848   2.803   2.054   2.494
  446WAT      O 1849   3.140   1.189   1.709
  446WAT     H1 1850   3.130   1.232   1.624
  446WAT     H2 1851   3.230   1.159   1.710
  446WAT    EPW 1852   3.150   1.191   1.698
  447WAT      O 1853   2.977   1.419   1.763
  447WAT     H1 1854   2.899   1.405   1.709
  447WAT     H2 1855   3.020   1.334   1.766
  447WAT    EPW 1856   2.972   1.406   1.756
  448WAT      O 1857   1.875   2.620   1.438
  448WAT     H1 1858   1.782   2.617   1.462
  448WAT     H2 1859   1.910   2.693   1.489
  448WAT    EPW 1860   1.867   2.629   1.448
  449WAT      O 1861   0.546   2.662   0.236
  449WAT     H1 1862   0.469   2.607   0.222
  449WAT     H2 1863   0.608   2.605   0.282
  449WAT    EPW 1864   0.544   2.647   0.240
  450WAT      O 1865   2.561   3.356   0.715
  450WAT     H1 1866   2.602   3.403   0.643
  450WAT     H2 1867   2.520   3.425   0.768
  450WAT    EPW 1868   2.561   3.372   0.713
  451WAT      O 1869   2.181   3.412   2.042
  451WAT     H1 1870   2.161   3.456   2.125
  451WAT     H2 1871   2.219   3.481   1.987
  451WAT    EPW 1872   2.183   3.427   2.046
  452WAT      O 1873   2.354   0.699   1.473
  452WAT     H1 1874   2.346   0.677   1.565
  452WAT     H2 1875   2.433   0.653   1.444
  452WAT    EPW 1876   2.363   0.690   1.481
  453WAT      O 1877   2.502   3.247   2.594
  453WAT     H1 1878   2.425   3.302   2.609
  453WAT     H2 1879   2.570   3.284   2.650
  453WAT    EPW 1880   2.501   3.259   2.604
  454WAT      O 1881   1.281   0.569   3.436
  454WAT     H1 1882   1.348   0.607   3.493
  454WAT     H2 1883   1.203   0.622   3.452
  454WAT    EPW 1884   1.280   0.581   3.446
  455WAT      O 1885   1.601   2.673   2.046
  455WAT     H1 1886   1.651   2.617   1.987
  455WAT     H2 1887   1.633   2.650   2.134
  455WAT    EPW 1888   1.612   2.663   2.050
  456WAT      O 1889   0.607   3.749   3.850
  456WAT     H1 1890   0.652   3.687   3.792
  456WAT     H2 1891   0.514   3.729   3.840
  456WAT    EPW 1892   0.600   3.738   3.841
  457WAT      O 1893   2.039   3.080   0.263
  457WAT     H1 1894   2.067   3.065   0.173
  457WAT     H2 1895   1.995   3.165   0.261
  457WAT    EPW 1896   2.037   3.089   0.251
  458WAT      O 1897   3.718   0.542   1.464
  458WAT     H1 1898   3.810   0.528   1.486
  458WAT     H2 1899   3.670   0.494   1.531
  458WAT    EPW 1900   3.724   0.534   1.475
  459WAT      O 1901   0.479   3.899   3.115
  459WAT     H1 1902   0.402   3.946   3.146
  459WAT     H2 1903   0.476   3.909   3.020
  459WAT    EPW 1904   0.468   3.906   3.106
  460WAT      O 1905   1.861   2.945   3.580
  460WAT     H1 1906   1.844   3.038   3.563
  460WAT     H2 1907   1.788   2.899   3.539
  460WAT    EPW 1908   1.849   2.951   3.572
  461WAT      O 1909   2.257   2.332   1.824
  461WAT     H1 1910   2.246   2.342   1.919
  461WAT     H2 1911   2.291   2.243   1.813
  461WAT    EPW 1912   2.260   2.322   1.835
  462WAT      O 1913   3.487   1.246   1.514
  462WAT     H1 1914   3.562   1.278   1.464
  462WAT     H2 1915   3.454   1.173   1.462
  462WAT    EPW 1916   3.493   1.241   1.500
  463WAT      O 1917   3.490   2.366   1.736
  463WAT     H1 1918   3.523   2.437   1.791
  463WAT     H2 1919   3.494   2.288   1.791
  463WAT    EPW 1920   3.495   2.365   1.750
  464WAT      O 1921   0.358   0.960   1.301
  464WAT     H1 1922   0.301   1.028   1.335
  464WAT     H2 1923   0.403   1.001   1.227
  464WAT    EPW 1924   0.357   0.974   1.295
  465WAT      O 1925   3.704   2.357   3.125
  465WAT     H1 1926   3.674   2.283   3.178
  465WAT     H2 1927   3.649   2.430   3.155
  465WAT    EPW 1928   3.693   2.357   3.136
  466WAT      O 1929   0.355   3.671   3.810
  466WAT     H1 1930   0.307   3.615   3.749
  466WAT     H2 1931   0.290   3.697   3.875
  466WAT    EPW 1932   0.340   3.667   3.810
  467WAT      O 1933   1.978   2.149   3.871
  467WAT     H1 1934   2.067   2.173   3.895
  467WAT     H2 1935   1.947   2.096   3.944
  467WAT    EPW 1936   1.986   2.145   3.883
  468WAT      O 1937   1.379   2.508   0.092
  468WAT     H1 1938   1.449   2.499   0.027
  468WAT     H2 1939   1.309   2.451   0.060
  468WAT    EPW 1940   1.379   2.499   0.079
  469WAT      O 1941   0.022   3.854   2.576
  469WAT     H1 1942  -0.004   3.769   2.543
  469WAT     H2 1943   0.104   3.837   2.624
  469WAT    EPW 1944   0.030   3.841   2.578
  470WAT      O 1945   2.458   2.411   3.580
  470WAT     H1 1946   2.484   2.443   3.493
  470WAT     H2 1947   2.482   2.482   3.639
  470WAT    EPW 1948   2.464   2.425   3.576
  471WAT      O 1949   1.961   0.976   0.408
  471WAT     H1 1950   1.966   0.949   0.499
  471WAT     H2 1951   1.922   1.064   0.410
  471WAT    EPW 1952   1.956   0.984   0.420
  472WAT      O 1953   0.020   1.701   4.094
  472WAT     H1 1954   0.049   1.674   4.007
  472WAT     H2 1955   0.097   1.691   4.149
  472WAT    EPW 1956   0.034   1.696   4.090
  473WAT      O 1957   1.131   1.498   1.490
  473WAT     H1 1958   1.109   1.566   1.426
  473WAT     H2 1959   1.051   1.487   1.541
  473WAT    EPW 1960   1.118   1.505   1.488
  474WAT      O 1961   0.179   1.749   3.035
  474WAT     H1 1962   0.183   1.715   2.945
  474WAT     H2 1963   0.197   1.673   3.090
  474WAT    EPW 1964   0.182   1.735   3.030
  475WAT      O 1965   3.061   0.844   1.338
  475WAT     H1 1966   3.042   0.906   1.268
  475WAT     H2 1967   3.141   0.800   1.310
  475WAT    EPW 1968   3.069   0.846   1.325
  476WAT      O 1969   2.675   1.668   0.615
  476WAT     H1 1970   2.609   1.732   0.589
  476WAT     H2 1971   2.757   1.702   0.578
  476WAT    EPW 1972   2.677   1.681   0.607
  477WAT      O 1973   1.975   3.671   1.372
  477WAT     H1 1974   2.044   3.703   1.429
  477WAT     H2 1975   1.914   3.626   1.431
  477WAT    EPW 1976   1.976   3.669   1.387
  478WAT      O 1977   0.949   0.138   3.127
  478WAT     H1 1978   0.966   0.065   3.186
  478WAT     H2 1979   0.855   0.153   3.134
  478WAT    EPW 1980   0.939   0.130   3.136
  479WAT      O 1981   1.834   2.766   1.010
  479WAT     H1 1982   1.865   2.677   0.994
  479WAT     H2 1983   1.782   2.787   0.932
  479WAT    EPW 1984   1.831   2.757   0.997
  480WAT      O 1985   1.684   1.405   3.037
  480WAT     H1 1986   1.731   1.322   3.023
  480WAT     H2 1987   1.663   1.405   3.130
  480WAT    EPW 1988   1.688   1.394   3.047
  481WAT      O 1989   2.832   2.572   2.106
  481WAT     H1 1990   2.796   2.634   2.170
  481WAT     H2 1991   2.885   2.627   2.048
  481WAT    EPW 1992   2.834   2.588   2.107
  482WAT      O 1993   3.505   1.299   3.302
  482WAT     H1 1994   3.549   1.248   3.234
  482WAT     H2 1995   3.500   1.388   3.267
  482WAT    EPW 1996   3.510   1.304   3.289
  483WAT      O 1997   1.191   0.150   0.133
  483WAT     H1 1998   1.264   0.181   0.186
  483WAT     H2 1999   1.150   0.230   0.099
  483WAT    EPW 2000   1.195   0.164   0.135
  484WAT      O 2001   1.747   2.645   2.852
  484WAT     H1 2002   1.691   2.626   2.776
  484WAT     H2 2003   1.818   2.581   2.845
  484WAT    EPW 2004   1.749   2.634   2.841
  485WAT      O 2005   1.746   3.481   1.161
  485WAT     H1 2006   1.824   3.432   1.188
  485WAT     H2 2007   1.719   3.528   1.239
  485WAT    EPW 2008   1.753   3.480   1.175
  486WAT      O 2009   1.537   1.342   1.337
  486WAT     H1 2010   1.572   1.378   1.419
  486WAT     H2 2011   1.585   1.389   1.268
  486WAT    EPW 2012   1.548   1.353   1.339
  487WAT      O 2013   1.407   1.510   2.717
  487WAT     H1 2014   1.352   1.536   2.791
  487WAT     H2 2015   1.395   1.580   2.653
  487WAT    EPW 2016   1.398   1.522   2.719
  488WAT      O 2017   2.869   1.947   0.966
  488WAT     H1 2018   2.822   1.878   0.919
  488WAT     H2 2019   2.805   2.017   0.975
  488WAT    EPW 2020   2.854   1.947   0.961
  489WAT      O 2021   1.078   2.091   1.910
  489WAT     H1 2022   0.992   2.063   1.942
  489WAT     H2 2023   1.102   2.024   1.846
  489WAT    EPW 2024   1.070   2.079   1.906
  490WAT      O 2025   2.173   1.828   0.442
  490WAT     H1 2026   2.264   1.845   0.465
  490WAT     H2 2027   2.128   1.818   0.526
  490WAT    EPW 2028   2.179   1.829   0.456
  491WAT      O 2029   0.404   4.040   1.104
  491WAT     H1 2030   0.389   4.111   1.041
  491WAT     H2 2031   0.338   3.974   1.083
  491WAT    EPW 2032   0.393   4.041   1.093
  492WAT      O 2033   3.690   1.099   2.337
  492WAT     H1 2034   3.646   1.136   2.260
  492WAT     H2 2035   3.714   1.010   2.310
  492WAT    EPW 2036   3.688   1.092   2.323
  493WAT      O 2037   2.648   1.917   1.457
  493WAT     H1 2038   2.596   1.996   1.444
  493WAT     H2 2039   2.684   1.896   1.371
  493WAT    EPW 2040   2.646   1.925   1.444
  494WAT      O 2041   3.745   3.459   3.081
  494WAT     H1 2042   3.817   3.487   3.137
  494WAT     H2 2043   3.750   3.518   3.005
  494WAT    EPW 2044   3.755   3.470   3.078
  495WAT      O 2045   0.954   0.003   2.346
  495WAT     H1 2046   0.999  -0.076   2.377
  495WAT     H2 2047   0.999   0.075   2.389
  495WAT    EPW 2048   0.966   0.002   2.355
  496WAT      O 2049   2.206   1.672   0.201
  496WAT     H1 2050   2.162   1.587   0.204
  496WAT     H2 2051   2.181   1.714   0.283
  496WAT    EPW 2052   2.197   1.666   0.212
  497WAT      O 2053   0.496   1.849   2.010
  497WAT     H1 2054   0.540   1.870   2.093
  497WAT     H2 2055   0.515   1.757   1.995
  497WAT    EPW 2056   0.504   1.840   2.019
  498WAT      O 2057   3.396   0.201   0.185
  498WAT     H1 2058   3.425   0.121   0.141
  498WAT     H2 2059   3.312   0.177   0.225
  498WAT    EPW 2060   3.389   0.187   0.185
  499WAT      O 2061   2.798   3.570   0.186
  499WAT     H1 2062   2.734   3.642   0.190
  499WAT     H2 2063   2.748   3.497   0.150
  499WAT    EPW 2064   2.783   3.570   0.182
  500WAT      O 2065   3.111   1.989   3.751
  500WAT     H1 2066   3.053   2.052   3.708
  500WAT     H2 2067   3.070   1.973   3.836
  500WAT    EPW 2068   3.098   1.995   3.756
  501WAT      O 2069   1.365   1.728   0.419
  501WAT     H1 2070   1.318   1.769   0.491
  501WAT     H2 2071   1.317   1.755   0.340
  501WAT    EPW 2072   1.352   1.737   0.418
  502WAT      O 2073   3.428   0.429   0.937
  502WAT     H1 2074   3.351   0.457   0.887
  502WAT     H2 2075   3.460   0.509   0.978
  502WAT    EPW 2076   3.422   0.443   0.936
  503WAT      O 2077   0.567   3.147   1.077
  503WAT     H1 2078   0.499   3.092   1.040
  503WAT     H2 2079   0.520   3.216   1.124
  503WAT    EPW 2080   0.552   3.149   1.078
  504WAT      O 2081   2.324   3.171   1.043
  504WAT     H1 2082   2.341   3.265   1.052
  504WAT     H2 2083   2.292   3.160   0.954
  504WAT    EPW 2084   2.322   3.182   1.033
  505WAT      O 2085   0.296   2.464   4.029
  505WAT     H1 2086   0.277   2.556   4.051
  505WAT     H2 2087   0.210   2.424   4.017
  505WAT    EPW 2088   0.282   2.471   4.030
  506WAT      O 2089   1.864   0.583   3.636
  506WAT     H1 2090   1.874   0.668   3.679
  506WAT     H2 2091   1.934   0.581   3.571
  506WAT    EPW 2092   1.875   0.594   3.633
  507WAT      O 2093   2.478   0.393   3.697
  507WAT     H1 2094   2.479   0.367   3.605
  507WAT     H2 2095   2.556   0.352   3.734
  507WAT    EPW 2096   2.488   0.384   3.690
  508WAT      O 2097   0.407   0.316   0.007
  508WAT     H1 2098   0.361   0.400   0.001
  508WAT     H2 2099   0.437   0.311   0.097
  508WAT    EPW 2100   0.405   0.326   0.018
  509WAT      O 2101   2.330   1.102   2.059
  509WAT     H1 2102   2.324   1.178   2.118
  509WAT     H2 2103   2.378   1.134   1.983
  509WAT    EPW 2104   2.335   1.117   2.057
  510WAT      O 2105   1.981   1.738   3.644
  510WAT     H1 2106   2.068   1.736   3.605
  510WAT     H2 2107   1.935   1.808   3.597
  510WAT    EPW 2108   1.986   1.747   3.633
  511WAT      O 2109   3.076   3.684   1.243
  511WAT     H1 2110   3.118   3.612   1.195
  511WAT     H2 2111   3.133   3.701   1.317
  511WAT    EPW 2112   3.089   3.676   1.246
  512WAT      O 2113   2.116   1.215   0.556
  512WAT     H1 2114   2.159   1.209   0.471
  512WAT     H2 2115   2.126   1.307   0.582
  512WAT    EPW 2116   2.123   1.227   0.548
  513WAT      O 2117   3.246   2.800   3.331
  513WAT     H1 2118   3.293   2.812   3.248
  513WAT     H2 2119   3.266   2.710   3.357
  513WAT    EPW 2120   3.255   2.790   3.323
  514WAT      O 2121   1.439   1.994   3.160
  514WAT     H1 2122   1.385   1.956   3.229
  514WAT     H2 2123   1.467   2.078   3.196
  514WAT    EPW 2124   1.436   2.000   3.174
  515WAT      O 2125   3.085   1.424   0.124
  515WAT     H1 2126   3.007   1.378   0.094
  515WAT     H2 2127   3.141   1.428   0.046
  515WAT    EPW 2128   3.082   1.419   0.109
  516WAT      O 2129   2.196   0.896   2.774
  516WAT     H1 2130   2.237   0.813   2.750
  516WAT     H2 2131   2.168   0.884   2.865
  516WAT    EPW 2132   2.198   0.884   2.783
  517WAT      O 2133   3.350   2.717   0.190
  517WAT     H1 2134   3.388   2.644   0.142
  517WAT     H2 2135   3.324   2.680   0.275
  517WAT    EPW 2136   3.352   2.703   0.195
  518WAT      O 2137   1.490   0.371   3.067
  518WAT     H1 2138   1.400   0.338   3.065
  518WAT     H2 2139   1.537   0.308   3.122
  518WAT    EPW 2140   1.484   0.358   3.074
  519WAT      O 2141   2.786   2.014   0.322
  519WAT     H1 2142   2.849   2.009   0.394
  519WAT     H2 2143   2.714   2.066   0.358
  519WAT    EPW 2144   2.785   2.020   0.336
  520WAT      O 2145   1.163   0.858   2.416
  520WAT     H1 2146   1.141   0.859   2.323
  520WAT     H2 2147   1.206   0.774   2.430
  520WAT    EPW 2148   1.165   0.847   2.406
  521WAT      O 2149   1.877   1.988   3.481
  521WAT     H1 2150   1.842   2.064   3.434
  521WAT     H2 2151   1.961   2.018   3.517
  521WAT    EPW 2152   1.884   2.002   3.479
  522WAT      O 2153   0.328   1.895   2.597
  522WAT     H1 2154   0.374   1.814   2.574
  522WAT     H2 2155   0.248   1.865   2.641
  522WAT    EPW 2156   0.323   1.880   2.600
  523WAT      O 2157   0.182   0.478   1.670
  523WAT     H1 2158   0.183   0.574   1.668
  523WAT     H2 2159   0.205   0.456   1.761
  523WAT    EPW 2160   0.185   0.488   1.682
  524WAT      O 2161   3.574   2.847   2.256
  524WAT     H1 2162   3.515   2.864   2.329
  524WAT     H2 2163   3.651   2.807   2.297
  524WAT    EPW 2164   3.576   2.844   2.271
  525WAT      O 2165   2.921   0.709   0.404
  525WAT     H1 2166   2.838   0.747   0.434
  525WAT     H2 2167   2.925   0.732   0.312
  525WAT    EPW 2168   2.910   0.717   0.396
  526WAT      O 2169   1.327   1.191   2.293
  526WAT     H1 2170   1.349   1.125   2.228
  526WAT     H2 2171   1.366   1.159   2.374
  526WAT    EPW 2172   1.335   1.178   2.295
  527WAT      O 2173   3.447   0.623   2.149
  527WAT     H1 2174   3.472   0.713   2.128
  527WAT     H2 2175   3.529   0.574   2.144
  527WAT    EPW 2176   3.461   0.629   2.145
  528WAT      O 2177   0.035   3.939   2.983
  528WAT     H1 2178  -0.036   3.898   3.031
  528WAT     H2 2179  -0.006   4.011   2.935
  528WAT    EPW 2180   0.020   3.943   2.983
  529WAT      O 2181   1.942   2.578   2.458
  529WAT     H1 2182   1.980   2.494   2.483
  529WAT     H2 2183   1.878   2.556   2.391
  529WAT    EPW 2184   1.939   2.564   2.452
  530WAT      O 2185   2.602   0.615   1.354
  530WAT     H1 2186   2.681   0.618   1.409
  530WAT     H2 2187   2.631   0.650   1.269
  530WAT    EPW 2188   2.617   0.620   1.350
  531WAT      O 2189   0.936   3.503   0.481
  531WAT     H1 2190   1.008   3.554   0.444
  531WAT     H2 2191   0.868   3.506   0.413
  531WAT    EPW 2192   0.936   3.510   0.467
  532WAT      O 2193   2.612   1.924   2.194
  532WAT     H1 2194   2.638   2.015   2.201
  532WAT     H2 2195   2.557   1.921   2.116
  532WAT    EPW 2196   2.608   1.935   2.185
  533WAT      O 2197   0.506   0.218   0.655
  533WAT     H1 2198   0.466   0.156   0.594
  533WAT     H2 2199   0.484   0.184   0.742
  533WAT    EPW 2200   0.498   0.205   0.659
  534WAT      O 2201   2.890   0.153   2.467
  534WAT     H1 2202   2.969   0.171   2.518
  534WAT     H2 2203   2.863   0.065   2.495
  534WAT    EPW 2204   2.897   0.144   2.477
  535WAT      O 2205   1.018   3.321   0.712
  535WAT     H1 2206   0.948   3.256   0.721
  535WAT     H2 2207   0.980   3.389   0.657
  535WAT    EPW 2208   1.004   3.321   0.706
  536WAT      O 2209   0.854   0.675   3.912
  536WAT     H1 2210   0.812   0.603   3.959
  536WAT     H2 2211   0.845   0.652   3.819
  536WAT    EPW 2212   0.847   0.662   3.906
  537WAT      O 2213   3.487   3.023   3.385
  537WAT     H1 2214   3.492   2.931   3.410
  537WAT     H2 2215   3.415   3.027   3.322
  537WAT    EPW 2216   3.478   3.011   3.380
  538WAT      O 2217   1.371   2.425   0.807
  538WAT     H1 2218   1.303   2.388   0.862
  538WAT     H2 2219   1.451   2.415   0.858
  538WAT    EPW 2220   1.373   2.419   0.821
  539WAT      O 2221   2.683   3.312   3.549
  539WAT     H1 2222   2.764   3.335   3.503
  539WAT     H2 2223   2.615   3.320   3.482
  539WAT    EPW 2224   2.685   3.316   3.534
  540WAT      O 2225   1.632   1.020   3.084
  540WAT     H1 2226   1.650   0.951   3.148
  540WAT     H2 2227   1.556   0.989   3.035
  540WAT    EPW 2228   1.624   1.007   3.086
  541WAT      O 2229   0.638   2.902   0.786
  541WAT     H1 2230   0.630   2.864   0.874
  541WAT     H2 2231   0.704   2.970   0.796
  541WAT    EPW 2232   0.646   2.906   0.799
  542WAT      O 2233   1.654   0.531   0.283
  542WAT     H1 2234   1.682   0.442   0.305
  542WAT     H2 2235   1.709   0.588   0.337
  542WAT    EPW 2236   1.665   0.527   0.293
  543WAT      O 2237   1.754   2.022   1.219
  543WAT     H1 2238   1.679   2.074   1.249
  543WAT     H2 2239   1.751   2.026   1.124
  543WAT    EPW 2240   1.744   2.029   1.211
  544WAT      O 2241   3.727   0.124   0.179
  544WAT     H1 2242   3.652   0.065   0.185
  544WAT     H2 2243   3.798   0.069   0.146
  544WAT    EPW 2244   3.726   0.109   0.176
  545WAT      O 2245   1.694   3.294   0.000
  545WAT     H1 2246   1.686   3.303   0.095
  545WAT     H2 2247   1.746   3.215  -0.012
  545WAT    EPW 2248   1.700   3.285   0.011
  546WAT      O 2249   2.861   4.122   0.558
  546WAT     H1 2250   2.865   4.195   0.620
  546WAT     H2 2251   2.771   4.091   0.564
  546WAT    EPW 2252   2.850   4.127   0.567
  547WAT      O 2253   3.046   0.852   3.301
  547WAT     H1 2254   2.967   0.803   3.325
  547WAT     H2 2255   3.045   0.929   3.358
  547WAT    EPW 2256   3.036   0.855   3.312
  548WAT      O 2257   1.273   1.743   3.894
  548WAT     H1 2258   1.319   1.660   3.906
  548WAT     H2 2259   1.341   1.810   3.901
  548WAT    EPW 2260   1.288   1.741   3.897
  549WAT      O 2261   0.552   2.430   3.891
  549WAT     H1 2262   0.528   2.403   3.802
  549WAT     H2 2263   0.469   2.448   3.934
  549WAT    EPW 2264   0.538   2.429   3.885
  550WAT      O 2265   3.003   1.443   3.067
  550WAT     H1 2266   2.982   1.496   2.990
  550WAT     H2 2267   3.090   1.474   3.094
  550WAT    EPW 2268   3.012   1.454   3.060
  551WAT      O 2269   1.060   3.295   3.707
  551WAT     H1 2270   1.031   3.259   3.623
  551WAT     H2 2271   1.094   3.219   3.755
  551WAT    EPW 2272   1.060   3.280   3.702
  552WAT      O 2273   1.148   2.300   2.988
  552WAT     H1 2274   1.212   2.229   2.991
  552WAT     H2 2275   1.069   2.263   3.027
  552WAT    EPW 2276   1.146   2.286   2.993
  553WAT      O 2277   0.077   4.043   0.678
  553WAT     H1 2278   0.074   4.093   0.596
  553WAT     H2 2279  -0.000   4.072   0.726
  553WAT    EPW 2280   0.066   4.053   0.673
  554WAT      O 2281   2.718   0.804   4.055
  554WAT     H1 2282   2.742   0.856   4.132
  554WAT     H2 2283   2.786   0.736   4.051
  554WAT    EPW 2284   2.730   0.802   4.065
  555WAT      O 2285   2.434   1.652   3.910
  555WAT     H1 2286   2.502   1.631   3.973
  555WAT     H2 2287   2.403   1.567   3.878
  555WAT    EPW 2288   2.438   1.638   3.914
  556WAT      O 2289   0.116   2.004   2.906
  556WAT     H1 2290   0.043   2.019   2.966
  556WAT     H2 2291   0.138   1.911   2.917
  556WAT    EPW 2292   0.110   1.994   2.915
  557WAT      O 2293   2.371   3.514   0.514
  557WAT     H1 2294   2.358   3.487   0.423
  557WAT     H2 2295   2.431   3.449   0.550
  557WAT    EPW 2296   2.377   3.502   0.507
  558WAT      O 2297   1.081   2.277   3.773
  558WAT     H1 2298   1.144   2.341   3.737
  558WAT     H2 2299   1.134   2.201   3.796
  558WAT    EPW 2300   1.096   2.276   3.771
  559WAT      O 2301   1.371   3.074   3.958
  559WAT     H1 2302   1.364   3.160   3.997
  559WAT     H2 2303   1.299   3.071   3.894
  559WAT    EPW 2304   1.360   3.085   3.955
  560WAT      O 2305   2.812   2.393   0.435
  560WAT     H1 2306   2.858   2.313   0.458
  560WAT     H2 2307   2.879   2.449   0.395
  560WAT    EPW 2308   2.827   2.390   0.433
  561WAT      O 2309   2.606   3.424   2.140
  561WAT     H1 2310   2.626   3.505   2.094
  561WAT     H2 2311   2.549   3.376   2.080
  561WAT    EPW 2312   2.601   3.428   2.126
  562WAT      O 2313   3.366   0.877   2.901
  562WAT     H1 2314   3.333   0.834   2.822
  562WAT     H2 2315   3.291   0.882   2.959
  562WAT    EPW 2316   3.352   0.872   2.898
  563WAT      O 2317   1.094   2.454   2.528
  563WAT     H1 2318   1.032   2.416   2.590
  563WAT     H2 2319   1.040   2.506   2.469
  563WAT    EPW 2320   1.079   2.456   2.528
  564WAT      O 2321   1.898   3.025   1.839
  564WAT     H1 2322   1.977   3.042   1.891
  564WAT     H2 2323   1.912   3.073   1.758
  564WAT    EPW 2324   1.910   3.034   1.835
  565WAT      O 2325   3.101   2.132   3.444
  565WAT     H1 2326   3.115   2.119   3.350
  565WAT     H2 2327   3.016   2.176   3.449
  565WAT    EPW 2328   3.092   2.136   3.432
  566WAT      O 2329   3.478   0.172   0.818
  566WAT     H1 2330   3.457   0.188   0.726
  566WAT     H2 2331   3.464   0.256   0.861
  566WAT    EPW 2332   3.473   0.185   0.811
  567WAT      O 2333   3.170   0.602   0.989
  567WAT     H1 2334   3.128   0.579   1.071
  567WAT     H2 2335   3.177   0.698   0.992
  567WAT    EPW 2336   3.165   0.612   1.000
  568WAT      O 2337   1.138   3.204   1.654
  568WAT     H1 2338   1.196   3.128   1.663
  568WAT     H2 2339   1.073   3.176   1.589
  568WAT    EPW 2340   1.137   3.190   1.647
  569WAT      O 2341   2.786   1.855   1.696
  569WAT     H1 2342   2.762   1.903   1.617
  569WAT     H2 2343   2.879   1.836   1.685
  569WAT    EPW 2344   2.795   1.859   1.684
  570WAT      O 2345   1.095   2.728   3.233
  570WAT     H1 2346   1.086   2.669   3.158
  570WAT     H2 2347   1.112   2.670   3.307
  570WAT    EPW 2348   1.096   2.712   3.233
  571WAT      O 2349   1.358   3.370   0.411
  571WAT     H1 2350   1.453   3.377   0.407
  571WAT     H2 2351   1.341   3.316   0.488
  571WAT    EPW 2352   1.368   3.364   0.421
  572WAT      O 2353   1.506   0.670   2.846
  572WAT     H1 2354   1.545   0.633   2.925
  572WAT     H2 2355   1.484   0.760   2.871
  572WAT    EPW 2356   1.509   0.677   2.860
  573WAT      O 2357   3.130   2.308   1.303
  573WAT     H1 2358   3.125   2.329   1.397
  573WAT     H2 2359   3.086   2.224   1.295
  573WAT    EPW 2360   3.123   2.300   1.315
  574WAT      O 2361   2.927   2.620   0.291
  574WAT     H1 2362   2.909   2.685   0.358
  574WAT     H2 2363   2.876   2.648   0.215
  574WAT    EPW 2364   2.918   2.632   0.289
  575WAT      O 2365   3.693   2.436   2.836
  575WAT     H1 2366   3.697   2.410   2.928
  575WAT     H2 2367   3.745   2.516   2.832
  575WAT    EPW 2368   3.700   2.443   2.848
  576WAT      O 2369   0.099   2.982   1.326
  576WAT     H1 2370   0.103   2.891   1.296
  576WAT     H2 2371   0.188   3.000   1.357
  576WAT    EPW 2372   0.111   2.972   1.326
  577WAT      O 2373   0.450   1.911   1.031
  577WAT     H1 2374   0.500   1.862   1.097
  577WAT     H2 2375   0.364   1.923   1.070
  577WAT    EPW 2376   0.445   1.906   1.045
  578WAT      O 2377   0.101   3.739   1.846
  578WAT     H1 2378   0.070   3.740   1.936
  578WAT     H2 2379   0.097   3.830   1.818
  578WAT    EPW 2380   0.096   3.751   1.854
  579WAT      O 2381   2.814   3.886   2.776
  579WAT     H1 2382   2.881   3.895   2.844
  579WAT     H2 2383   2.808   3.791   2.761
  579WAT    EPW 2384   2.822   3.874   2.783
  580WAT      O 2385   1.377   3.909   0.383
  580WAT     H1 2386   1.418   3.850   0.319
  580WAT     H2 2387   1.301   3.945   0.338
  580WAT    EPW 2388   1.372   3.906   0.368
  581WAT      O 2389   2.669   0.033   3.846
  581WAT     H1 2390   2.576   0.047   3.865
  581WAT     H2 2391   2.703  -0.010   3.924
  581WAT    EPW 2392   2.661   0.029   3.859
  582WAT      O 2393   0.403   2.939   0.245
  582WAT     H1 2394   0.490   2.934   0.285
  582WAT     H2 2395   0.420   2.948   0.152
  582WAT    EPW 2396   0.417   2.940   0.238
  583WAT      O 2397   0.019   3.162   3.891
  583WAT     H1 2398  -0.013   3.227   3.829
  583WAT     H2 2399   0.087   3.115   3.844
  583WAT    EPW 2400   0.023   3.164   3.877
  584WAT      O 2401   0.266   0.550   1.096
  584WAT     H1 2402   0.274   0.601   1.176
  584WAT     H2 2403   0.329   0.590   1.035
  584WAT    EPW 2404   0.276   0.562   1.098
  585WAT      O 2405   1.805   1.808   0.378
  585WAT     H1 2406   1.717   1.828   0.345
  585WAT     H2 2407   1.851   1.775   0.301
  585WAT    EPW 2408   1.799   1.806   0.363
  586WAT      O 2409   1.922   0.369   2.060
  586WAT     H1 2410   1.828   0.354   2.061
  586WAT     H2 2411   1.951   0.343   2.148
  586WAT    EPW 2412   1.913   0.363   2.072
  587WAT      O 2413   1.487   0.091   0.705
  587WAT     H1 2414   1.480   0.148   0.782
  587WAT     H2 2415   1.434   0.134   0.638
  587WAT    EPW 2416   1.479   0.104   0.706
  588WAT      O 2417   0.602   4.053   1.823
  588WAT     H1 2418   0.549   4.122   1.783
  588WAT     H2 2419   0.655   4.098   1.888
  588WAT    EPW 2420   0.602   4.068   1.826
  589WAT      O 2421   3.682   3.153   0.066
  589WAT     H1 2422   3.593   3.190   0.068
  589WAT     H2 2423   3.695   3.128  -0.025
  589WAT    EPW 2424   3.672   3.154   0.054
  590WAT      O 2425   1.851   0.696   2.771
  590WAT     H1 2426   1.925   0.635   2.767
  590WAT     H2 2427   1.853   0.743   2.688
  590WAT    EPW 2428   1.861   0.694   2.760
  591WAT      O 2429   0.257   0.703   2.944
  591WAT     H1 2430   0.328   0.758   2.977
  591WAT     H2 2431   0.281   0.683   2.854
  591WAT    EPW 2432   0.269   0.707   2.937
  592WAT      O 2433   3.074   2.276   0.721
  592WAT     H1 2434   3.050   2.223   0.797
  592WAT     H2 2435   3.101   2.360   0.757
  592WAT    EPW 2436   3.074   2.280   0.736
  593WAT      O 2437   2.944   3.165   2.305
  593WAT     H1 2438   2.977   3.226   2.238
  593WAT     H2 2439   2.851   3.154   2.283
  593WAT    EPW 2440   2.936   3.172   2.293
  594WAT      O 2441   1.785   3.861   3.386
  594WAT     H1 2442   1.783   3.885   3.293
  594WAT     H2 2443   1.698   3.825   3.403
  594WAT    EPW 2444   1.774   3.859   3.376
  595WAT      O 2445   2.553   0.029   1.262
  595WAT     H1 2446   2.572   0.121   1.282
  595WAT     H2 2447   2.475   0.031   1.208
  595WAT    EPW 2448   2.545   0.041   1.258
  596WAT      O 2449   2.325   3.636   1.919
  596WAT     H1 2450   2.400   3.618   1.862
  596WAT     H2 2451   2.250   3.639   1.859
  596WAT    EPW 2452   2.325   3.634   1.903
  597WAT      O 2453   2.536   1.420   0.701
  597WAT     H1 2454   2.560   1.501   0.656
  597WAT     H2 2455   2.575   1.350   0.649
  597WAT    EPW 2456   2.544   1.422   0.688
  598WAT      O 2457   0.980   1.943   1.529
  598WAT     H1 2458   1.036   1.921   1.603
  598WAT     H2 2459   0.996   2.036   1.514
  598WAT    EPW 2460   0.990   1.953   1.537
  599WAT      O 2461   2.776   1.890   3.852
  599WAT     H1 2462   2.799   1.957   3.788
  599WAT     H2 2463   2.724   1.827   3.803
  599WAT    EPW 2464   2.773   1.891   3.837
  600WAT      O 2465   0.302   1.160   1.800
  600WAT     H1 2466   0.359   1.215   1.746
  600WAT     H2 2467   0.295   1.078   1.752
  600WAT    EPW 2468   0.309   1.157   1.787
  601WAT      O 2469   2.657   3.777   2.302
  601WAT     H1 2470   2.602   3.728   2.363
  601WAT     H2 2471   2.742   3.733   2.306
  601WAT    EPW 2472   2.661   3.764   2.310
  602WAT      O 2473   2.236   2.396   2.099
  602WAT     H1 2474   2.208   2.479   2.137
  602WAT     H2 2475   2.184   2.330   2.146
  602WAT    EPW 2476   2.225   2.398   2.110
  603WAT      O 2477   0.089   2.186   1.931
  603WAT     H1 2478   0.155   2.221   1.870
  603WAT     H2 2479   0.140   2.147   2.002
  603WAT    EPW 2480   0.104   2.185   1.932
  604WAT      O 2481   3.431   1.348   0.110
  604WAT     H1 2482   3.501   1.411   0.121
  604WAT     H2 2483   3.366   1.393   0.057
  604WAT    EPW 2484   3.432   1.362   0.105
  605WAT      O 2485   1.288   1.954   0.600
  605WAT     H1 2486   1.270   1.913   0.684
  605WAT     H2 2487   1.383   1.965   0.599
  605WAT    EPW 2488   1.299   1.950   0.611
  606WAT      O 2489   3.493   1.170   2.555
  606WAT     H1 2490   3.530   1.126   2.479
  606WAT     H2 2491   3.542   1.134   2.629
  606WAT    EPW 2492   3.504   1.160   2.555
  607WAT      O 2493   1.330   3.455   2.967
  607WAT     H1 2494   1.283   3.377   2.997
  607WAT     H2 2495   1.280   3.485   2.891
  607WAT    EPW 2496   1.317   3.449   2.961
  608WAT      O 2497   2.236   3.977   3.011
  608WAT     H1 2498   2.244   3.904   2.949
  608WAT     H2 2499   2.268   4.052   2.962
  608WAT    EPW 2500   2.241   3.977   2.996
  609WAT      O 2501   3.209   0.038   3.564
  609WAT     H1 2502   3.152  -0.035   3.539
  609WAT     H2 2503   3.283  -0.005   3.608
  609WAT    EPW 2504   3.211   0.023   3.566
  610WAT      O 2505   2.843   2.833   1.812
  610WAT     H1 2506   2.797   2.903   1.767
  610WAT     H2 2507   2.805   2.752   1.776
  610WAT    EPW 2508   2.832   2.831   1.802
  611WAT      O 2509   3.253   1.582   2.499
  611WAT     H1 2510   3.187   1.626   2.445
  611WAT     H2 2511   3.231   1.489   2.493
  611WAT    EPW 2512   3.241   1.575   2.491
  612WAT      O 2513   0.125   2.486   0.258
  612WAT     H1 2514   0.164   2.559   0.305
  612WAT     H2 2515   0.075   2.527   0.188
  612WAT    EPW 2516   0.124   2.501   0.255
  613WAT      O 2517   3.028   1.560   1.453
  613WAT     H1 2518   3.008   1.604   1.536
  613WAT     H2 2519   2.971   1.484   1.452
  613WAT    EPW 2520   3.018   1.556   1.464
  614WAT      O 2521   0.702   0.498   2.490
  614WAT     H1 2522   0.779   0.553   2.505
  614WAT     H2 2523   0.675   0.518   2.400
  614WAT    EPW 2524   0.708   0.508   2.480
  615WAT      O 2525   3.626   1.719   0.799
  615WAT     H1 2526   3.638   1.632   0.760
  615WAT     H2 2527   3.565   1.763   0.740
  615WAT    EPW 2528   3.620   1.713   0.786
  616WAT      O 2529   0.145   2.519   2.349
  616WAT     H1 2530   0.140   2.424   2.344
  616WAT     H2 2531   0.177   2.537   2.438
  616WAT    EPW 2532   0.149   2.509   2.360
  617WAT      O 2533   3.172   3.153   2.459
  617WAT     H1 2534   3.177   3.205   2.539
  617WAT     H2 2535   3.098   3.190   2.411
  617WAT    EPW 2536   3.163   3.165   2.463
  618WAT      O 2537   0.918   3.849   1.873
  618WAT     H1 2538   0.871   3.881   1.796
  618WAT     H2 2539   0.979   3.783   1.838
  618WAT    EPW 2540   0.920   3.844   1.858
  619WAT      O 2541   0.643   1.778   0.401
  619WAT     H1 2542   0.661   1.871   0.389
  619WAT     H2 2543   0.728   1.735   0.388
  619WAT    EPW 2544   0.657   1.784   0.398
  620WAT      O 2545   1.755   2.628   0.192
  620WAT     H1 2546   1.702   2.551   0.209
  620WAT     H2 2547   1.801   2.645   0.274
  620WAT    EPW 2548   1.755   2.620   0.205
  621WAT      O 2549   1.251   1.543   2.978
  621WAT     H1 2550   1.305   1.620   2.994
  621WAT     H2 2551   1.297   1.472   3.024
  621WAT    EPW 2552   1.264   1.544   2.986
  622WAT      O 2553   2.070   3.555   2.299
  622WAT     H1 2554   2.041   3.628   2.354
  622WAT     H2 2555   1.990   3.506   2.281
  622WAT    EPW 2556   2.056   3.559   2.304
  623WAT      O 2557   3.239   2.936   1.646
  623WAT     H1 2558   3.227   2.948   1.740
  623WAT     H2 2559   3.264   2.844   1.636
  623WAT    EPW 2560   3.241   2.926   1.657
  624WAT      O 2561   2.725   3.353   2.771
  624WAT     H1 2562   2.783   3.394   2.707
  624WAT     H2 2563   2.698   3.425   2.828
  624WAT    EPW 2564   2.729   3.368   2.770
  625WAT      O 2565   3.625   3.761   1.709
  625WAT     H1 2566   3.653   3.831   1.767
  625WAT     H2 2567   3.704   3.711   1.690
  625WAT    EPW 2568   3.639   3.764   1.714
  626WAT      O 2569   2.965   1.305   2.268
  626WAT     H1 2570   3.011   1.224   2.245
  626WAT     H2 2571   3.014   1.374   2.223
  626WAT    EPW 2572   2.977   1.303   2.259
  627WAT      O 2573   1.648   0.536   0.714
  627WAT     H1 2574   1.649   0.571   0.625
  627WAT     H2 2575   1.558   0.550   0.744
  627WAT    EPW 2576   1.636   0.542   0.706
  628WAT      O 2577   2.165   0.370   2.935
  628WAT     H1 2578   2.070   0.381   2.938
  628WAT     H2 2579   2.196   0.393   3.023
  628WAT    EPW 2580   2.157   0.375   2.947
  629WAT      O 2581   1.338   1.444   0.190
  629WAT     H1 2582   1.371   1.355   0.202
  629WAT     H2 2583   1.406   1.500   0.229
  629WAT    EPW 2584   1.351   1.440   0.197
  630WAT      O 2585   1.409   3.375   2.122
  630WAT     H1 2586   1.327   3.389   2.170
  630WAT     H2 2587   1.474   3.358   2.189
  630WAT    EPW 2588   1.407   3.375   2.137
  631WAT      O 2589   3.720   0.703   2.928
  631WAT     H1 2590   3.683   0.718   2.841
  631WAT     H2 2591   3.812   0.684   2.912
  631WAT    EPW 2592   3.727   0.702   2.914
  632WAT      O 2593   2.984   2.946   3.047
  632WAT     H1 2594   3.005   2.883   2.978
  632WAT     H2 2595   2.910   2.996   3.012
  632WAT    EPW 2596   2.977   2.945   3.033
  633WAT      O 2597   0.043   2.868   3.687
  633WAT     H1 2598   0.073   2.902   3.602
  633WAT     H2 2599   0.074   2.777   3.688
  633WAT    EPW 2600   0.051   2.860   3.676
  634WAT      O 2601   0.748   0.708   1.492
  634WAT     H1 2602   0.737   0.662   1.409
  634WAT     H2 2603   0.714   0.648   1.558
  634WAT    EPW 2604   0.742   0.694   1.490
  635WAT      O 2605   2.483   0.602   3.104
  635WAT     H1 2606   2.537   0.551   3.165
  635WAT     H2 2607   2.543   0.623   3.032
  635WAT    EPW 2608   2.498   0.598   3.103
  636WAT      O 2609   1.599   2.955   3.865
  636WAT     H1 2610   1.565   2.985   3.781
  636WAT     H2 2611   1.528   2.970   3.927
  636WAT    EPW 2612   1.585   2.961   3.862
  637WAT      O 2613   0.401   0.649   3.308
  637WAT     H1 2614   0.387   0.590   3.234
  637WAT     H2 2615   0.336   0.621   3.373
  637WAT    EPW 2616   0.391   0.637   3.307
  638WAT      O 2617   2.272   2.090   2.372
  638WAT     H1 2618   2.348   2.110   2.427
  638WAT     H2 2619   2.210   2.161   2.388
  638WAT    EPW 2620   2.274   2.102   2.381
  639WAT      O 2621   1.907   4.032   1.751
  639WAT     H1 2622   2.002   4.031   1.763
  639WAT     H2 2623   1.873   4.054   1.837
  639WAT    EPW 2624   1.915   4.035   1.764
  640WAT      O 2625   0.912   1.053   2.291
  640WAT     H1 2626   0.841   1.117   2.290
  640WAT     H2 2627   0.991   1.105   2.304
  640WAT    EPW 2628   0.913   1.068   2.292
  641WAT      O 2629   3.247   2.966   3.701
  641WAT     H1 2630   3.211   3.002   3.620
  641WAT     H2 2631   3.281   3.042   3.748
  641WAT    EPW 2632   3.247   2.980   3.696
  642WAT      O 2633   2.527   2.706   2.443
  642WAT     H1 2634   2.491   2.793   2.425
  642WAT     H2 2635   2.487   2.680   2.525
  642WAT    EPW 2636   2.517   2.714   2.451
  643WAT      O 2637   2.004   0.663   0.986
  643WAT     H1 2638   1.988   0.685   1.078
  643WAT     H2 2639   1.941   0.592   0.968
  643WAT    EPW 2640   1.993   0.656   0.996
  644WAT      O 2641   2.668   2.342   1.292
  644WAT     H1 2642   2.596   2.285   1.317
  644WAT     H2 2643   2.629   2.404   1.230
  644WAT    EPW 2644   2.653   2.343   1.287
  645WAT      O 2645   0.110   0.871   0.832
  645WAT     H1 2646   0.124   0.965   0.815
  645WAT     H2 2647   0.077   0.837   0.748
  645WAT    EPW 2648   0.107   0.879   0.819
  646WAT      O 2649   2.094   0.391   1.430
  646WAT     H1 2650   2.068   0.389   1.522
  646WAT     H2 2651   2.168   0.330   1.425
  646WAT    EPW 2652   2.101   0.383   1.441
  647WAT      O 2653   0.356   0.628   4.066
  647WAT     H1 2654   0.391   0.684   4.135
  647WAT     H2 2655   0.414   0.641   3.991
  647WAT    EPW 2656   0.368   0.637   4.065
  648WAT      O 2657   0.155   0.100   2.250
  648WAT     H1 2658   0.138   0.029   2.312
  648WAT     H2 2659   0.225   0.066   2.194
  648WAT    EPW 2660   0.162   0.086   2.251
  649WAT      O 2661   2.534   0.523   4.021
  649WAT     H1 2662   2.518   0.442   4.070
  649WAT     H2 2663   2.446   0.555   4.000
  649WAT    EPW 2664   2.520   0.516   4.025
  650WAT      O 2665   2.876   2.390   2.440
  650WAT     H1 2666   2.899   2.355   2.526
  650WAT     H2 2667   2.845   2.479   2.457
  650WAT    EPW 2668   2.875   2.397   2.453
  651WAT      O 2669   0.575   3.033   1.973
  651WAT     H1 2670   0.495   3.070   1.935
  651WAT     H2 2671   0.563   3.043   2.067
  651WAT    EPW 2672   0.563   3.040   1.980
  652WAT      O 2673   3.004   3.893   2.976
  652WAT     H1 2674   3.087   3.850   2.997
  652WAT     H2 2675   3.015   3.983   3.007
  652WAT    EPW 2676   3.016   3.899   2.983
  653WAT      O 2677   3.447   3.535   3.123
  653WAT     H1 2678   3.495   3.618   3.126
  653WAT     H2 2679   3.375   3.546   3.185
  653WAT    EPW 2680   3.444   3.547   3.132
  654WAT      O 2681   0.082   3.993   1.735
  654WAT     H1 2682   0.046   4.066   1.685
  654WAT     H2 2683   0.177   4.007   1.734
  654WAT    EPW 2684   0.090   4.004   1.729
  655WAT      O 2685   0.419   3.088   2.224
  655WAT     H1 2686   0.371   3.118   2.147
  655WAT     H2 2687   0.478   3.160   2.245
  655WAT    EPW 2688   0.420   3.101   2.216
  656WAT      O 2689   1.819   2.400   3.202
  656WAT     H1 2690   1.787   2.312   3.222
  656WAT     H2 2691   1.883   2.419   3.270
  656WAT    EPW 2692   1.823   2.391   3.213
  657WAT      O 2693   3.395   0.333   3.632
  657WAT     H1 2694   3.360   0.324   3.544
  657WAT     H2 2695   3.409   0.428   3.642
  657WAT    EPW 2696   3.392   0.345   3.622
  658WAT      O 2697   0.626   3.667   3.061
  658WAT     H1 2698   0.580   3.747   3.086
  658WAT     H2 2699   0.707   3.669   3.112
  658WAT    EPW 2700   0.631   3.678   3.071
  659WAT      O 2701   1.600   1.453   3.301
  659WAT     H1 2702   1.619   1.393   3.373
  659WAT     H2 2703   1.506   1.470   3.309
  659WAT    EPW 2704   1.590   1.447   3.312
  660WAT      O 2705   2.360   1.436   3.750
  660WAT     H1 2706   2.357   1.445   3.655
  660WAT     H2 2707   2.293   1.370   3.770
  660WAT    EPW 2708   2.351   1.428   3.740
  661WAT      O 2709   0.964   1.399   1.711
  661WAT     H1 2710   0.962   1.475   1.769
  661WAT     H2 2711   1.013   1.333   1.760
  661WAT    EPW 2712   0.970   1.400   1.725
  662WAT      O 2713   1.358   1.043   2.550
  662WAT     H1 2714   1.305   0.964   2.544
  662WAT     H2 2715   1.329   1.086   2.631
  662WAT    EPW 2716   1.347   1.038   2.560
  663WAT      O 2717   2.758   3.530   0.832
  663WAT     H1 2718   2.788   3.546   0.922
  663WAT     H2 2719   2.805   3.593   0.779
  663WAT    EPW 2720   2.768   3.540   0.837
  664WAT      O 2721   3.631   0.924   3.678
  664WAT     H1 2722   3.640   0.849   3.737
  664WAT     H2 2723   3.683   0.901   3.602
  664WAT    EPW 2724   3.639   0.911   3.676
  665WAT      O 2725   0.278   1.214   1.413
  665WAT     H1 2726   0.341   1.263   1.361
  665WAT     H2 2727   0.192   1.247   1.385
  665WAT    EPW 2728   0.275   1.225   1.403
  666WAT      O 2729   0.931   3.242   1.112
  666WAT     H1 2730   0.913   3.151   1.089
  666WAT     H2 2731   1.012   3.262   1.066
  666WAT    EPW 2732   0.939   3.233   1.103
  667WAT      O 2733   2.703   1.041   3.439
  667WAT     H1 2734   2.667   1.092   3.367
  667WAT     H2 2735   2.634   1.042   3.505
  667WAT    EPW 2736   2.689   1.048   3.438
  668WAT      O 2737   0.985   0.355   0.117
  668WAT     H1 2738   0.958   0.386   0.203
  668WAT     H2 2739   0.927   0.401   0.056
  668WAT    EPW 2740   0.974   0.365   0.120
  669WAT      O 2741   3.610   3.309   3.668
  669WAT     H1 2742   3.599   3.214   3.668
  669WAT     H2 2743   3.562   3.339   3.591
  669WAT    EPW 2744   3.602   3.301   3.658
  670WAT      O 2745   1.335   3.163   2.724
  670WAT     H1 2746   1.381   3.084   2.752
  670WAT     H2 2747   1.245   3.149   2.754
  670WAT    EPW 2748   1.329   3.151   2.732
  671WAT      O 2749   0.076   1.224   1.194
  671WAT     H1 2750   0.007   1.281   1.161
  671WAT     H2 2751   0.153   1.245   1.141
  671WAT    EPW 2752   0.077   1.234   1.183
  672WAT      O 2753   0.593   2.191   2.380
  672WAT     H1 2754   0.542   2.229   2.452
  672WAT     H2 2755   0.668   2.150   2.423
  672WAT    EPW 2756   0.596   2.191   2.395
  673WAT      O 2757   3.127   2.183   2.322
  673WAT     H1 2758   3.115   2.265   2.274
  673WAT     H2 2759   3.193   2.203   2.389
  673WAT    EPW 2760   3.134   2.196   2.324
  674WAT      O 2761   1.335   3.104   3.071
  674WAT     H1 2762   1.393   3.168   3.113
  674WAT     H2 2763   1.254   3.152   3.053
  674WAT    EPW 2764   1.332   3.119   3.074
  675WAT      O 2765   1.357   0.083   2.119
  675WAT     H1 2766   1.362   0.165   2.069
  675WAT     H2 2767   1.403   0.019   2.065
  675WAT    EPW 2768   1.363   0.085   2.105
  676WAT      O 2769   2.923   0.077   0.863
  676WAT     H1 2770   2.983   0.003   0.872
  676WAT     H2 2771   2.980   0.153   0.859
  676WAT    EPW 2772   2.939   0.077   0.864
  677WAT      O 2773   3.645   1.910   3.352
  677WAT     H1 2774   3.600   1.941   3.431
  677WAT     H2 2775   3.711   1.978   3.335
  677WAT    EPW 2776   3.648   1.923   3.360
  678WAT      O 2777   0.890   3.526   2.483
  678WAT     H1 2778   0.825   3.568   2.540
  678WAT     H2 2779   0.963   3.588   2.480
  678WAT    EPW 2780   0.891   3.539   2.491
  679WAT      O 2781   1.814   0.260   2.555
  679WAT     H1 2782   1.773   0.342   2.580
  679WAT     H2 2783   1.742   0.203   2.529
  679WAT    EPW 2784   1.799   0.263   2.555
  680WAT      O 2785   2.806   2.568   1.714
  680WAT     H1 2786   2.829   2.482   1.750
  680WAT     H2 2787   2.711   2.568   1.711
  680WAT    EPW 2788   2.797   2.557   1.718
  681WAT      O 2789   2.915   1.504   3.844
  681WAT     H1 2790   2.957   1.583   3.879
  681WAT     H2 2791   2.824   1.530   3.828
  681WAT    EPW 2792   2.909   1.518   3.846
  682WAT      O 2793   0.578   0.037   3.426
  682WAT     H1 2794   0.629   0.042   3.507
  682WAT     H2 2795   0.518   0.111   3.430
  682WAT    EPW 2796   0.577   0.047   3.437
  683WAT      O 2797   3.416   2.353   0.355
  683WAT     H1 2798   3.339   2.407   0.336
  683WAT     H2 2799   3.427   2.299   0.277
  683WAT    EPW 2800   3.407   2.353   0.342
  684WAT      O 2801   3.306   2.332   3.610
  684WAT     H1 2802   3.228   2.300   3.565
  684WAT     H2 2803   3.339   2.256   3.658
  684WAT    EPW 2804   3.300   2.318   3.610
  685WAT      O 2805   0.755   1.095   2.627
  685WAT     H1 2806   0.746   1.167   2.564
  685WAT     H2 2807   0.833   1.048   2.597
  685WAT    EPW 2808   0.764   1.098   2.615
  686WAT      O 2809   1.543   2.320   3.718
  686WAT     H1 2810   1.590   2.376   3.655
  686WAT     H2 2811   1.609   2.260   3.750
  686WAT    EPW 2812   1.558   2.320   3.714
  687WAT      O 2813   0.383   3.832   1.791
  687WAT     H1 2814   0.368   3.840   1.696
  687WAT     H2 2815   0.426   3.913   1.815
  687WAT    EPW 2816   0.387   3.844   1.781
  688WAT      O 2817   2.340   2.054   1.819
  688WAT     H1 2818   2.289   2.060   1.900
  688WAT     H2 2819   2.421   2.010   1.846
  688WAT    EPW 2820   2.344   2.049   1.833
  689WAT      O 2821   0.352   2.857   3.268
  689WAT     H1 2822   0.340   2.913   3.191
  689WAT     H2 2823   0.435   2.886   3.306
  689WAT    EPW 2824   0.361   2.868   3.263
  690WAT      O 2825   2.218   0.624   0.620
  690WAT     H1 2826   2.171   0.581   0.548
  690WAT     H2 2827   2.278   0.685   0.578
  690WAT    EPW 2828   2.219   0.626   0.605
  691WAT      O 2829   2.027   3.840   1.988
  691WAT     H1 2830   1.997   3.783   1.918
  691WAT     H2 2831   2.080   3.784   2.045
  691WAT    EPW 2832   2.030   3.825   1.986
  692WAT      O 2833   2.820   3.608   1.149
  692WAT     H1 2834   2.763   3.673   1.190
  692WAT     H2 2835   2.906   3.624   1.190
  692WAT    EPW 2836   2.824   3.619   1.160
  693WAT      O 2837   3.283   1.187   2.779
  693WAT     H1 2838   3.330   1.271   2.781
  693WAT     H2 2839   3.225   1.191   2.855
  693WAT    EPW 2840   3.282   1.199   2.789
  694WAT      O 2841   2.227   1.700   2.213
  694WAT     H1 2842   2.299   1.722   2.272
  694WAT     H2 2843   2.212   1.779   2.162
  694WAT    EPW 2844   2.234   1.713   2.214
  695WAT      O 2845   3.272   3.934   1.821
  695WAT     H1 2846   3.355   3.925   1.775
  695WAT     H2 2847   3.238   4.019   1.792
  695WAT    EPW 2848   3.278   3.944   1.811
  696WAT      O 2849   1.892   0.091   2.765
  696WAT     H1 2850   1.814   0.108   2.818
  696WAT     H2 2851   1.881   0.147   2.688
  696WAT    EPW 2852   1.880   0.101   2.761
  697WAT      O 2853   1.598   1.597   0.247
  697WAT     H1 2854   1.659   1.553   0.306
  697WAT     H2 2855   1.653   1.657   0.195
  697WAT    EPW 2856   1.613   1.599   0.248
  698WAT      O 2857   2.719   3.328   1.181
  698WAT     H1 2858   2.791   3.372   1.136
  698WAT     H2 2859   2.705   3.248   1.130
  698WAT    EPW 2860   2.727   3.323   1.168
  699WAT      O 2861   2.200   2.349   0.475
  699WAT     H1 2862   2.179   2.390   0.390
  699WAT     H2 2863   2.288   2.380   0.495
  699WAT    EPW 2864   2.209   2.359   0.466
  700WAT      O 2865   0.961   3.691   1.150
  700WAT     H1 2866   1.037   3.725   1.103
  700WAT     H2 2867   0.994   3.615   1.197
  700WAT    EPW 2868   0.975   3.686   1.150
  701WAT      O 2869   1.407   0.495   3.716
  701WAT     H1 2870   1.424   0.411   3.759
  701WAT     H2 2871   1.312   0.503   3.717
  701WAT    EPW 2872   1.397   0.485   3.722
  702WAT      O 2873   2.433   3.583   0.846
  702WAT     H1 2874   2.395   3.555   0.929
  702WAT     H2 2875   2.526   3.598   0.867
  702WAT    EPW 2876   2.440   3.581   0.860
  703WAT      O 2877   3.661   1.010   0.244
  703WAT     H1 2878   3.690   1.077   0.182
  703WAT     H2 2879   3.700   1.036   0.327
  703WAT    EPW 2880   3.670   1.022   0.247
  704WAT      O 2881   1.751   0.704   0.080
  704WAT     H1 2882   1.680   0.744   0.030
  704WAT     H2 2883   1.721   0.615   0.098
  704WAT    EPW 2884   1.738   0.698   0.075
  705WAT      O 2885   0.655   2.809   3.693
  705WAT     H1 2886   0.639   2.756   3.771
  705WAT     H2 2887   0.725   2.763   3.647
  705WAT    EPW 2888   0.662   2.796   3.697
  706WAT      O 2889   1.792   2.426   0.746
  706WAT     H1 2890   1.783   2.331   0.736
  706WAT     H2 2891   1.887   2.441   0.741
  706WAT    EPW 2892   1.804   2.415   0.744
  707WAT      O 2893   2.870   3.709   4.007
  707WAT     H1 2894   2.951   3.737   4.049
  707WAT     H2 2895   2.823   3.661   4.075
  707WAT    EPW 2896   2.875   3.706   4.021
  708WAT      O 2897   2.747   1.474   2.420
  708WAT     H1 2898   2.783   1.557   2.449
  708WAT     H2 2899   2.824   1.422   2.396
  708WAT    EPW 2900   2.762   1.478   2.421
  709WAT      O 2901   0.644   2.802   0.012
  709WAT     H1 2902   0.562   2.800  -0.039
  709WAT     H2 2903   0.624   2.753   0.091
  709WAT    EPW 2904   0.630   2.795   0.015
  710WAT      O 2905   3.417   0.274   2.338
  710WAT     H1 2906   3.497   0.231   2.307
  710WAT     H2 2907   3.408   0.247   2.429
  710WAT    EPW 2908   3.426   0.265   2.346
  711WAT      O 2909   2.342   2.846   0.807
  711WAT     H1 2910   2.298   2.841   0.891
  711WAT     H2 2911   2.381   2.934   0.805
  711WAT    EPW 2912   2.341   2.857   0.818
  712WAT      O 2913   3.458   3.001   0.291
  712WAT     H1 2914   3.457   2.916   0.334
  712WAT     H2 2915   3.411   2.987   0.208
  712WAT    EPW 2916   3.451   2.988   0.285
  713WAT      O 2917   2.865   2.814   3.789
  713WAT     H1 2918   2.812   2.887   3.819
  713WAT     H2 2919   2.883   2.833   3.697
  713WAT    EPW 2920   2.861   2.826   3.781
  714WAT      O 2921   2.834   1.207   0.854
  714WAT     H1 2922   2.904   1.268   0.833
  714WAT     H2 2923   2.790   1.191   0.770
  714WAT    EPW 2924   2.837   1.213   0.840
  715WAT      O 2925   0.195   3.385   2.776
  715WAT     H1 2926   0.282   3.359   2.807
  715WAT     H2 2927   0.189   3.347   2.688
  715WAT    EPW 2928   0.206   3.377   2.768
  716WAT      O 2929   3.377   3.439   3.790
  716WAT     H1 2930   3.456   3.404   3.750
  716WAT     H2 2931   3.313   3.443   3.718
  716WAT    EPW 2932   3.379   3.435   3.775
  717WAT      O 2933   2.932   3.700   2.224
  717WAT     H1 2934   2.948   3.673   2.133
  717WAT     H2 2935   2.962   3.790   2.228
  717WAT    EPW 2936   2.938   3.708   2.212
  718WAT      O 2937   3.323   0.606   0.134
  718WAT     H1 2938   3.391   0.673   0.125
  718WAT     H2 2939   3.318   0.590   0.229
  718WAT    EPW 2940   3.331   0.612   0.146
  719WAT      O 2941   3.051   3.743   3.703
  719WAT     H1 2942   3.133   3.765   3.657
  719WAT     H2 2943   3.060   3.785   3.788
  719WAT    EPW 2944   3.063   3.751   3.708
  720WAT      O 2945   3.354   2.663   2.191
  720WAT     H1 2946   3.437   2.710   2.206
  720WAT     H2 2947   3.298   2.728   2.149
  720WAT    EPW 2948   3.358   2.678   2.187
  721WAT      O 2949   0.691   1.798   0.045
  721WAT     H1 2950   0.610   1.840   0.072
  721WAT     H2 2951   0.759   1.865   0.058
  721WAT    EPW 2952   0.690   1.812   0.050
  722WAT      O 2953   2.517   1.957   0.139
  722WAT     H1 2954   2.520   1.998   0.225
  722WAT     H2 2955   2.505   1.864   0.156
  722WAT    EPW 2956   2.516   1.951   0.152
  723WAT      O 2957   2.639   0.766   0.841
  723WAT     H1 2958   2.725   0.745   0.876
  723WAT     H2 2959   2.587   0.687   0.855
  723WAT    EPW 2960   2.643   0.753   0.847
  724WAT      O 2961   2.370   0.046   1.024
  724WAT     H1 2962   2.396   0.131   0.989
  724WAT     H2 2963   2.432  -0.017   0.986
  724WAT    EPW 2964   2.382   0.049   1.015
  725WAT      O 2965   3.767   3.206   2.046
  725WAT     H1 2966   3.741   3.297   2.063
  725WAT     H2 2967   3.727   3.185   1.961
  725WAT    EPW 2968   3.758   3.215   2.037
  726WAT      O 2969   3.303   1.836   2.810
  726WAT     H1 2970   3.244   1.858   2.738
  726WAT     H2 2971   3.379   1.796   2.767
  726WAT    EPW 2972   3.305   1.834   2.795
  727WAT      O 2973   1.515   3.542   4.088
  727WAT     H1 2974   1.588   3.482   4.075
  727WAT     H2 2975   1.549   3.628   4.063
  727WAT    EPW 2976   1.529   3.545   4.083
  728WAT      O 2977   2.912   4.000   2.002
  728WAT     H1 2978   2.945   4.038   2.084
  728WAT     H2 2979   2.820   4.024   2.000
  728WAT    EPW 2980   2.904   4.008   2.012
  729WAT      O 2981   0.743   0.723   3.247
  729WAT     H1 2982   0.830   0.738   3.210
  729WAT     H2 2983   0.742   0.631   3.271
  729WAT    EPW 2984   0.754   0.713   3.245
  730WAT      O 2985   3.096   2.691   1.054
  730WAT     H1 2986   3.174   2.730   1.014
  730WAT     H2 2987   3.026   2.709   0.991
  730WAT    EPW 2988   3.097   2.699   1.040
  731WAT      O 2989   1.294   2.989   0.826
  731WAT     H1 2990   1.361   2.922   0.826
  731WAT     H2 2991   1.211   2.941   0.831
  731WAT    EPW 2992   1.292   2.974   0.827
  732WAT      O 2993   2.438   3.422   1.084
  732WAT     H1 2994   2.382   3.441   1.159
  732WAT     H2 2995   2.526   3.420   1.119
  732WAT    EPW 2996   2.442   3.425   1.098
  733WAT      O 2997   3.133   0.906   0.553
  733WAT     H1 2998   3.086   0.932   0.632
  733WAT     H2 2999   3.070   0.854   0.503
  733WAT    EPW 3000   3.119   0.902   0.557
  734WAT      O 3001   0.454   1.396   1.272
  734WAT     H1 3002   0.478   1.417   1.182
  734WAT     H2 3003   0.536   1.369   1.314
  734WAT    EPW 3004   0.468   1.395   1.266
  735WAT      O 3005   1.849   3.540   3.976
  735WAT     H1 3006   1.823   3.448   3.986
  735WAT     H2 3007   1.907   3.540   3.900
  735WAT    EPW 3008   1.853   3.528   3.967
  736WAT      O 3009   0.168   0.612   2.380
  736WAT     H1 3010   0.246   0.656   2.345
  736WAT     H2 3011   0.195   0.581   2.467
  736WAT    EPW 3012   0.182   0.613   2.387
  737WAT      O 3013   2.723   0.632   3.673
  737WAT     H1 3014   2.629   0.649   3.674
  737WAT     H2 3015   2.739   0.581   3.752
  737WAT    EPW 3016   2.713   0.627   3.684
  738WAT      O 3017   0.828   0.605   3.656
  738WAT     H1 3018   0.732   0.599   3.657
  738WAT     H2 3019   0.848   0.643   3.570
  738WAT    EPW 3020   0.818   0.609   3.645
  739WAT      O 3021   0.420   0.995   3.125
  739WAT     H1 3022   0.466   0.923   3.083
  739WAT     H2 3023   0.387   0.958   3.207
  739WAT    EPW 3024   0.422   0.981   3.130
  740WAT      O 3025   2.447   0.872   3.913
  740WAT     H1 3026   2.526   0.877   3.966
  740WAT     H2 3027   2.470   0.812   3.842
  740WAT    EPW 3028   2.460   0.864   3.910
  741WAT      O 3029   1.334   3.857   3.957
  741WAT     H1 3030   1.330   3.941   4.001
  741WAT     H2 3031   1.428   3.838   3.948
  741WAT    EPW 3032   1.346   3.865   3.962
  742WAT      O 3033   1.649   3.119   3.430
  742WAT     H1 3034   1.631   3.052   3.364
  742WAT     H2 3035   1.726   3.165   3.396
  742WAT    EPW 3036   1.657   3.116   3.417
  743WAT      O 3037   1.161   2.875   2.371
  743WAT     H1 3038   1.112   2.921   2.303
  743WAT     H2 3039   1.226   2.823   2.323
  743WAT    EPW 3040   1.163   2.874   2.356
  744WAT      O 3041   1.976   3.061   3.224
  744WAT     H1 3042   1.960   3.016   3.142
  744WAT     H2 3043   2.016   2.995   3.281
  744WAT    EPW 3044   1.980   3.046   3.221
  745WAT      O 3045   0.925   0.123   1.885
  745WAT     H1 3046   0.981   0.064   1.836
  745WAT     H2 3047   0.964   0.210   1.872
  745WAT    EPW 3048   0.938   0.127   1.877
  746WAT      O 3049   1.453   3.122   3.636
  746WAT     H1 3050   1.406   3.049   3.594
  746WAT     H2 3051   1.531   3.134   3.581
  746WAT    EPW 3052   1.457   3.114   3.623
  747WAT      O 3053   2.144   3.125   0.803
  747WAT     H1 3054   2.064   3.125   0.855
  747WAT     H2 3055   2.128   3.191   0.736
  747WAT    EPW 3056   2.131   3.134   0.801
  748WAT      O 3057   0.705   3.817   2.330
  748WAT     H1 3058   0.796   3.841   2.342
  748WAT     H2 3059   0.673   3.799   2.419
  748WAT    EPW 3060   0.713   3.818   2.343
  749WAT      O 3061   2.359   3.558   3.490
  749WAT     H1 3062   2.302   3.506   3.434
  749WAT     H2 3063   2.427   3.591   3.431
  749WAT    EPW 3064   2.361   3.555   3.475
  750WAT      O 3065   1.955   1.742   3.944
  750WAT     H1 3066   2.048   1.759   3.960
  750WAT     H2 3067   1.944   1.758   3.850
  750WAT    EPW 3068   1.966   1.747   3.934
  751WAT      O 3069   2.612   2.111   0.940
  751WAT     H1 3070   2.553   2.047   0.898
  751WAT     H2 3071   2.554   2.183   0.966
  751WAT    EPW 3072   2.596   2.112   0.938
  752WAT      O 3073   0.214   1.455   3.500
  752WAT     H1 3074   0.218   1.432   3.408
  752WAT     H2 3075   0.148   1.397   3.537
  752WAT    EPW 3076   0.206   1.445   3.493
  753WAT      O 3077   1.134   1.695   2.502
  753WAT     H1 3078   1.059   1.636   2.492
  753WAT     H2 3079   1.108   1.755   2.573
  753WAT    EPW 3080   1.121   1.695   2.510
  754WAT      O 3081   2.814   0.381   1.067
  754WAT     H1 3082   2.838   0.359   1.157
  754WAT     H2 3083   2.744   0.319   1.046
  754WAT    EPW 3084   2.808   0.370   1.076
  755WAT      O 3085   3.055   3.932   3.919
  755WAT     H1 3086   3.044   4.017   3.876
  755WAT     H2 3087   3.120   3.948   3.987
  755WAT    EPW 3088   3.062   3.946   3.923
  756WAT      O 3089   1.095   0.169   2.580
  756WAT     H1 3090   1.165   0.118   2.621
  756WAT     H2 3091   1.122   0.260   2.593
  756WAT    EPW 3092   1.108   0.174   2.587
  757WAT      O 3093   1.882   2.820   3.058
  757WAT     H1 3094   1.952   2.755   3.054
  757WAT     H2 3095   1.802   2.770   3.042
  757WAT    EPW 3096   1.881   2.805   3.055
  758WAT      O 3097   0.946   1.394   0.879
  758WAT     H1 3098   0.993   1.472   0.847
  758WAT     H2 3099   1.006   1.352   0.939
  758WAT    EPW 3100   0.960   1.399   0.882
  759WAT      O 3101   2.771   1.165   1.741
  759WAT     H1 3102   2.734   1.253   1.730
  759WAT     H2 3103   2.821   1.150   1.661
  759WAT    EPW 3104   2.773   1.175   1.729
  760WAT      O 3105   1.145   0.335   3.225
  760WAT     H1 3106   1.198   0.330   3.304
  760WAT     H2 3107   1.080   0.265   3.234
  760WAT    EPW 3108   1.143   0.325   3.236
  761WAT      O 3109   1.083   3.760   2.578
  761WAT     H1 3110   1.159   3.813   2.552
  761WAT     H2 3111   1.008   3.816   2.561
  761WAT    EPW 3112   1.083   3.774   2.572
  762WAT      O 3113   2.572   3.995   2.933
  762WAT     H1 3114   2.646   3.983   2.873
  762WAT     H2 3115   2.546   4.086   2.921
  762WAT    EPW 3116   2.578   4.005   2.923
  763WAT      O 3117   0.168   0.924   0.149
  763WAT     H1 3118   0.218   1.006   0.147
  763WAT     H2 3119   0.122   0.922   0.065
  763WAT    EPW 3120   0.169   0.935   0.138
  764WAT      O 3121   1.374   3.871   3.480
  764WAT     H1 3122   1.286   3.886   3.514
  764WAT     H2 3123   1.425   3.946   3.510
  764WAT    EPW 3124   1.369   3.883   3.488
  765WAT      O 3125   2.139   0.676   1.937
  765WAT     H1 3126   2.186   0.629   1.868
  765WAT     H2 3127   2.051   0.638   1.936
  765WAT    EPW 3128   2.133   0.665   1.928
  766WAT      O 3129   3.299   3.575   2.490
  766WAT     H1 3130   3.303   3.480   2.488
  766WAT     H2 3131   3.208   3.595   2.512
  766WAT    EPW 3132   3.288   3.565   2.492
  767WAT      O 3133   1.493   1.433   2.245
  767WAT     H1 3134   1.466   1.383   2.322
  767WAT     H2 3135   1.533   1.512   2.282
  767WAT    EPW 3136   1.494   1.437   2.260
  768WAT      O 3137   0.647   0.508   1.656
  768WAT     H1 3138   0.665   0.417   1.633
  768WAT     H2 3139   0.692   0.521   1.739
  768WAT    EPW 3140   0.655   0.498   1.664
  769WAT      O 3141   2.543   0.265   0.055
  769WAT     H1 3142   2.632   0.229   0.052
  769WAT     H2 3143   2.536   0.303   0.142
  769WAT    EPW 3144   2.554   0.265   0.066
  770WAT      O 3145   2.765   1.263   0.154
  770WAT     H1 3146   2.697   1.204   0.122
  770WAT     H2 3147   2.843   1.209   0.160
  770WAT    EPW 3148   2.766   1.248   0.150
  771WAT      O 3149   0.178   2.038   1.392
  771WAT     H1 3150   0.200   1.946   1.408
  771WAT     H2 3151   0.130   2.066   1.470
  771WAT    EPW 3152   0.175   2.030   1.404
  772WAT      O 3153   1.878   1.534   0.713
  772WAT     H1 3154   1.803   1.560   0.768
  772WAT     H2 3155   1.876   1.438   0.715
  772WAT    EPW 3156   1.868   1.525   0.721
  773WAT      O 3157   2.912   2.203   0.151
  773WAT     H1 3158   2.873   2.143   0.215
  773WAT     H2 3159   2.875   2.177   0.067
  773WAT    EPW 3160   2.902   2.192   0.149
  774WAT      O 3161   0.130   0.277   0.936
  774WAT     H1 3162   0.092   0.345   0.991
  774WAT     H2 3163   0.121   0.311   0.847
  774WAT    EPW 3164   0.124   0.290   0.931
  775WAT      O 3165   1.675   2.159   3.337
  775WAT     H1 3166   1.672   2.101   3.261
  775WAT     H2 3167   1.602   2.132   3.392
  775WAT    EPW 3168   1.665   2.148   3.334
  776WAT      O 3169   2.399   0.904   1.017
  776WAT     H1 3170   2.476   0.868   0.973
  776WAT     H2 3171   2.368   0.973   0.958
  776WAT    EPW 3172   2.405   0.908   1.004
  777WAT      O 3173   0.953   0.882   1.402
  777WAT     H1 3174   0.887   0.820   1.432
  777WAT     H2 3175   1.000   0.836   1.333
  777WAT    EPW 3176   0.950   0.868   1.397
  778WAT      O 3177   3.001   1.519   2.086
  778WAT     H1 3178   3.087   1.547   2.055
  778WAT     H2 3179   2.962   1.475   2.011
  778WAT    EPW 3180   3.007   1.517   2.072
  779WAT      O 3181   0.708   1.373   2.547
  779WAT     H1 3182   0.674   1.419   2.624
  779WAT     H2 3183   0.789   1.419   2.525
  779WAT    EPW 3184   0.714   1.385   2.554
  780WAT      O 3185   3.661   2.053   3.059
  780WAT     H1 3186   3.591   1.993   3.086
  780WAT     H2 3187   3.714   2.065   3.137
  780WAT    EPW 3188   3.658   2.047   3.073
  781WAT      O 3189   0.662   1.517   2.801
  781WAT     H1 3190   0.737   1.576   2.788
  781WAT     H2 3191   0.641   1.526   2.894
  781WAT    EPW 3192   0.669   1.526   2.811
  782WAT      O 3193   0.873   3.457   3.869
  782WAT     H1 3194   0.947   3.402   3.843
  782WAT     H2 3195   0.830   3.409   3.939
  782WAT    EPW 3196   0.877   3.444   3.875
  783WAT      O 3197   2.516   2.916   3.562
  783WAT     H1 3198   2.602   2.952   3.583
  783WAT     H2 3199   2.527   2.876   3.476
  783WAT    EPW 3200   2.529   2.916   3.553
  784WAT      O 3201   3.218   4.100   3.015
  784WAT     H1 3202   3.199   4.089   2.922
  784WAT     H2 3203   3.290   4.163   3.018
  784WAT    EPW 3204   3.225   4.107   3.003
  785WAT      O 3205   2.083   2.309   2.357
  785WAT     H1 3206   2.083   2.330   2.450
  785WAT     H2 3207   1.991   2.312   2.332
  785WAT    EPW 3208   2.071   2.312   2.366
  786WAT      O 3209   1.091   3.906   2.865
  786WAT     H1 3210   1.037   3.842   2.820
  786WAT     H2 3211   1.044   3.989   2.856
  786WAT    EPW 3212   1.078   3.908   2.858
  787WAT      O 3213   0.074   0.416   2.834
  787WAT     H1 3214   0.020   0.414   2.755
  787WAT     H2 3215   0.014   0.393   2.904
  787WAT    EPW 3216   0.059   0.412   2.833
  788WAT      O 3217   3.651   0.200   2.240
  788WAT     H1 3218   3.738   0.212   2.278
  788WAT     H2 3219   3.629   0.284   2.201
  788WAT    EPW 3220   3.660   0.212   2.240
  789WAT      O 3221   3.347   2.362   4.040
  789WAT     H1 3222   3.384   2.301   4.104
  789WAT     H2 3223   3.325   2.308   3.964
  789WAT    EPW 3224   3.349   2.347   4.038
  790WAT      O 3225   2.029   3.332   2.882
  790WAT     H1 3226   2.013   3.238   2.868
  790WAT     H2 3227   1.983   3.375   2.810
  790WAT    EPW 3228   2.021   3.325   2.871
  791WAT      O 3229   3.514   0.633   0.543
  791WAT     H1 3230   3.524   0.585   0.461
  791WAT     H2 3231   3.594   0.686   0.550
  791WAT    EPW 3232   3.526   0.634   0.533
  792WAT      O 3233   2.170   0.933   3.058
  792WAT     H1 3234   2.257   0.963   3.032
  792WAT     H2 3235   2.117   1.013   3.060
  792WAT    EPW 3236   2.174   0.948   3.055
  793WAT      O 3237   1.556   1.927   0.322
  793WAT     H1 3238   1.497   1.853   0.315
  793WAT     H2 3239   1.587   1.942   0.232
  793WAT    EPW 3240   1.552   1.919   0.309
  794WAT      O 3241   3.122   1.463   3.433
  794WAT     H1 3242   3.179   1.387   3.446
  794WAT     H2 3243   3.047   1.447   3.490
  794WAT    EPW 3244   3.120   1.451   3.442
  795WAT      O 3245   1.628   2.426   0.976
  795WAT     H1 3246   1.585   2.496   1.024
  795WAT     H2 3247   1.662   2.468   0.897
  795WAT    EPW 3248   1.627   2.441   0.972
  796WAT      O 3249   2.721   3.928   3.230
  796WAT     H1 3250   2.666   3.860   3.192
  796WAT     H2 3251   2.730   3.903   3.322
  796WAT    EPW 3252   2.715   3.916   3.237
  797WAT      O 3253   2.072   1.142   2.686
  797WAT     H1 3254   2.089   1.059   2.732
  797WAT     H2 3255   2.084   1.121   2.593
  797WAT    EPW 3256   2.076   1.128   2.680
  798WAT      O 3257   1.813   1.006   1.340
  798WAT     H1 3258   1.784   1.013   1.431
  798WAT     H2 3259   1.842   0.915   1.330
  798WAT    EPW 3260   1.813   0.995   1.351
  799WAT      O 3261  -0.003   3.641   2.862
  799WAT     H1 3262   0.024   3.733   2.867
  799WAT     H2 3263   0.053   3.604   2.794
  799WAT    EPW 3264   0.008   3.648   2.853
  800WAT      O 3265   1.140   3.377   1.869
  800WAT     H1 3266   1.134   3.310   1.801
  800WAT     H2 3267   1.172   3.330   1.946
  800WAT    EPW 3268   1.143   3.362   1.870
  801WAT      O 3269   0.446   1.565   1.982
  801WAT     H1 3270   0.484   1.542   2.066
  801WAT     H2 3271   0.358   1.596   2.003
  801WAT    EPW 3272   0.439   1.566   1.996
  802WAT      O 3273   3.089   2.395   0.269
  802WAT     H1 3274   3.038   2.340   0.208
  802WAT     H2 3275   3.046   2.480   0.266
  802WAT    EPW 3276   3.076   2.399   0.260
  803WAT      O 3277   0.096   0.399   0.263
  803WAT     H1 3278   0.101   0.390   0.168
  803WAT     H2 3279   0.040   0.475   0.277
  803WAT    EPW 3280   0.090   0.408   0.252
  804WAT      O 3281   0.118   0.445   4.056
  804WAT     H1 3282   0.157   0.387   3.991
  804WAT     H2 3283   0.045   0.486   4.011
  804WAT    EPW 3284   0.113   0.443   4.042
  805WAT      O 3285   1.481   0.938   1.424
  805WAT     H1 3286   1.504   0.990   1.348
  805WAT     H2 3287   1.400   0.893   1.400
  805WAT    EPW 3288   1.473   0.939   1.411
  806WAT      O 3289   0.120   3.723   0.122
  806WAT     H1 3290   0.028   3.694   0.119
  806WAT     H2 3291   0.148   3.705   0.211
  806WAT    EPW 3292   0.111   3.717   0.133
  807WAT      O 3293   1.493   1.907   3.927
  807WAT     H1 3294   1.561   1.889   3.863
  807WAT     H2 3295   1.467   1.997   3.909
  807WAT    EPW 3296   1.499   1.917   3.916
  808WAT      O 3297   0.985   4.020   3.245
  808WAT     H1 3298   1.062   3.995   3.193
  808WAT     H2 3299   0.911   3.998   3.189
  808WAT    EPW 3300   0.986   4.014   3.230
  809WAT      O 3301   3.406   0.625   2.733
  809WAT     H1 3302   3.425   0.606   2.824
  809WAT     H2 3303   3.420   0.543   2.687
  809WAT    EPW 3304   3.410   0.612   2.739
  810WAT      O 3305   1.689   1.492   2.635
  810WAT     H1 3306   1.609   1.488   2.687
  810WAT     H2 3307   1.729   1.576   2.659
  810WAT    EPW 3308   1.684   1.503   2.645
  811WAT      O 3309   0.467   3.179   3.404
  811WAT     H1 3310   0.507   3.265   3.394
  811WAT     H2 3311   0.414   3.168   3.325
  811WAT    EPW 3312   0.465   3.189   3.392
  812WAT      O 3313   1.575   1.053   3.737
  812WAT     H1 3314   1.635   1.031   3.665
  812WAT     H2 3315   1.546   0.968   3.770
  812WAT    EPW 3316   1.579   1.039   3.732
  813WAT      O 3317   1.715   4.077   1.020
  813WAT     H1 3318   1.729   4.157   0.969
  813WAT     H2 3319   1.628   4.047   0.995
  813WAT    EPW 3320   1.706   4.084   1.010
  814WAT      O 3321   1.709   3.552   3.653
  814WAT     H1 3322   1.649   3.483   3.681
  814WAT     H2 3323   1.660   3.601   3.587
  814WAT    EPW 3324   1.694   3.550   3.648
  815WAT      O 3325   2.293   3.701   0.153
  815WAT     H1 3326   2.306   3.616   0.194
  815WAT     H2 3327   2.219   3.739   0.199
  815WAT    EPW 3328   2.285   3.695   0.164
  816WAT      O 3329   2.140   1.774   1.197
  816WAT     H1 3330   2.148   1.708   1.128
  816WAT     H2 3331   2.066   1.828   1.170
  816WAT    EPW 3332   2.131   1.772   1.184
  817WAT      O 3333   3.017   2.857   0.049
  817WAT     H1 3334   3.084   2.862  -0.019
  817WAT     H2 3335   3.067   2.848   0.130
  817WAT    EPW 3336   3.032   2.856   0.051
  818WAT      O 3337   0.381   0.143   3.099
  818WAT     H1 3338   0.312   0.083   3.072
  818WAT     H2 3339   0.395   0.200   3.024
  818WAT    EPW 3340   0.374   0.142   3.086
  819WAT      O 3341   1.467   1.159   3.282
  819WAT     H1 3342   1.533   1.198   3.338
  819WAT     H2 3343   1.515   1.095   3.229
  819WAT    EPW 3344   1.482   1.156   3.282
  820WAT      O 3345   1.704   2.940   2.156
  820WAT     H1 3346   1.656   2.864   2.125
  820WAT     H2 3347   1.689   3.007   2.089
  820WAT    EPW 3348   1.696   2.939   2.143
  821WAT      O 3349   1.493   2.629   1.142
  821WAT     H1 3350   1.506   2.723   1.157
  821WAT     H2 3351   1.472   2.594   1.228
  821WAT    EPW 3352   1.492   2.637   1.156
  822WAT      O 3353   1.151   3.620   0.907
  822WAT     H1 3354   1.076   3.638   0.850
  822WAT     H2 3355   1.216   3.687   0.883
  822WAT    EPW 3356   1.150   3.632   0.896
  823WAT      O 3357   3.404   3.198   0.524
  823WAT     H1 3358   3.467   3.270   0.533
  823WAT     H2 3359   3.414   3.170   0.433
  823WAT    EPW 3360   3.414   3.204   0.513
  824WAT      O 3361   2.031   1.929   0.927
  824WAT     H1 3362   2.059   1.885   0.846
  824WAT     H2 3363   2.075   2.015   0.923
  824WAT    EPW 3364   2.041   1.935   0.916
  825WAT      O 3365   3.770   0.510   3.808
  825WAT     H1 3366   3.851   0.504   3.758
  825WAT     H2 3367   3.721   0.431   3.784
  825WAT    EPW 3368   3.774   0.499   3.798
  826WAT      O 3369   1.576   3.063   0.345
  826WAT     H1 3370   1.482   3.073   0.329
  826WAT     H2 3371   1.611   3.026   0.264
  826WAT    EPW 3372   1.568   3.059   0.332
  827WAT      O 3373   0.273   3.125   0.411
  827WAT     H1 3374   0.319   3.043   0.389
  827WAT     H2 3375   0.205   3.132   0.345
  827WAT    EPW 3376   0.270   3.115   0.399
  828WAT      O 3377   0.347   1.950   1.747
  828WAT     H1 3378   0.322   1.937   1.839
  828WAT     H2 3379   0.401   1.874   1.726
  828WAT    EPW 3380   0.351   1.938   1.756
  829WAT      O 3381   0.587   0.042   1.483
  829WAT     H1 3382   0.502   0.022   1.444
  829WAT     H2 3383   0.644   0.064   1.409
  829WAT    EPW 3384   0.583   0.042   1.468
  830WAT      O 3385   3.133   3.870   2.336
  830WAT     H1 3386   3.076   3.904   2.405
  830WAT     H2 3387   3.122   3.775   2.341
  830WAT    EPW 3388   3.124   3.862   2.346
  831WAT      O 3389   3.504   4.136   3.138
  831WAT     H1 3390   3.459   4.202   3.191
  831WAT     H2 3391   3.485   4.162   3.047
  831WAT    EPW 3392   3.496   4.149   3.133
  832WAT      O 3393   3.681   1.288   2.852
  832WAT     H1 3394   3.603   1.322   2.808
  832WAT     H2 3395   3.678   1.194   2.838
  832WAT    EPW 3396   3.670   1.280   2.844
  833WAT      O 3397   0.615   0.914   3.729
  833WAT     H1 3398   0.554   0.923   3.656
  833WAT     H2 3399   0.579   0.972   3.797
  833WAT    EPW 3400   0.602   0.923   3.729
  834WAT      O 3401   3.211   3.709   3.020
  834WAT     H1 3402   3.252   3.626   2.997
  834WAT     H2 3403   3.284   3.764   3.048
  834WAT    EPW 3404   3.226   3.705   3.021
  835WAT      O 3405   0.420   1.235   0.708
  835WAT     H1 3406   0.451   1.160   0.760
  835WAT     H2 3407   0.475   1.308   0.737
  835WAT    EPW 3408   0.432   1.235   0.719
  836WAT      O 3409   2.179   0.801   3.613
  836WAT     H1 3410   2.272   0.822   3.617
  836WAT     H2 3411   2.149   0.809   3.704
  836WAT    EPW 3412   2.187   0.805   3.625
  837WAT      O 3413   0.636   2.738   1.437
  837WAT     H1 3414   0.654   2.646   1.457
  837WAT     H2 3415   0.722   2.781   1.439
  837WAT    EPW 3416   0.650   2.732   1.440
  838WAT      O 3417   0.351   2.269   1.396
  838WAT     H1 3418   0.317   2.180   1.389
  838WAT     H2 3419   0.364   2.297   1.305
  838WAT    EPW 3420   0.348   2.261   1.383
  839WAT      O 3421   3.725   1.740   1.528
  839WAT     H1 3422   3.717   1.732   1.623
  839WAT     H2 3423   3.817   1.758   1.512
  839WAT    EPW 3424   3.736   1.742   1.538
  840WAT      O 3425   2.317   4.004   3.286
  840WAT     H1 3426   2.281   3.932   3.337
  840WAT     H2 3427   2.300   3.980   3.195
  840WAT    EPW 3428   2.310   3.992   3.281
  841WAT      O 3429   2.725   1.412   3.404
  841WAT     H1 3430   2.779   1.348   3.358
  841WAT     H2 3431   2.668   1.449   3.335
  841WAT    EPW 3432   2.724   1.409   3.389
  842WAT      O 3433   3.206   0.618   3.290
  842WAT     H1 3434   3.183   0.711   3.288
  842WAT     H2 3435   3.139   0.576   3.236
  842WAT    EPW 3436   3.194   0.625   3.282
  843WAT      O 3437   3.748   3.467   1.840
  843WAT     H1 3438   3.834   3.459   1.879
  843WAT     H2 3439   3.699   3.523   1.900
  843WAT    EPW 3440   3.753   3.473   1.853
  844WAT      O 3441   0.842   0.899   1.835
  844WAT     H1 3442   0.846   0.853   1.752
  844WAT     H2 3443   0.801   0.983   1.814
  844WAT    EPW 3444   0.837   0.904   1.822
  845WAT      O 3445   1.637   2.353   1.313
  845WAT     H1 3446   1.700   2.400   1.259
  845WAT     H2 3447   1.666   2.370   1.403
  845WAT    EPW 3448   1.649   2.361   1.318
  846WAT      O 3449   0.270   0.379   2.258
  846WAT     H1 3450   0.235   0.465   2.283
  846WAT     H2 3451   0.196   0.319   2.272
  846WAT    EPW 3452   0.256   0.382   2.263
  847WAT      O 3453   2.524   3.764   3.071
  847WAT     H1 3454   2.540   3.841   3.017
  847WAT     H2 3455   2.429   3.750   3.065
  847WAT    EPW 3456   2.514   3.772   3.063
  848WAT      O 3457   3.021   2.075   2.940
  848WAT     H1 3458   3.030   2.042   2.851
  848WAT     H2 3459   3.057   2.164   2.937
  848WAT    EPW 3460   3.027   2.083   2.928
  849WAT      O 3461   1.036   3.479   1.324
  849WAT     H1 3462   0.992   3.394   1.322
  849WAT     H2 3463   0.978   3.534   1.377
  849WAT    EPW 3464   1.022   3.475   1.331
  850WAT      O 3465   2.687   3.667   1.989
  850WAT     H1 3466   2.666   3.696   1.901
  850WAT     H2 3467   2.648   3.733   2.046
  850WAT    EPW 3468   2.679   3.679   1.985
  851WAT      O 3469   1.052   0.802   1.660
  851WAT     H1 3470   1.051   0.813   1.565
  851WAT     H2 3471   1.133   0.846   1.688
  851WAT    EPW 3472   1.063   0.809   1.651
  852WAT      O 3473   1.048   1.060   0.274
  852WAT     H1 3474   1.071   0.967   0.269
  852WAT     H2 3475   0.969   1.067   0.220
  852WAT    EPW 3476   1.041   1.048   0.266
  853WAT      O 3477   3.043   0.510   1.247
  853WAT     H1 3478   3.017   0.507   1.339
  853WAT     H2 3479   3.084   0.425   1.231
  853WAT    EPW 3480   3.045   0.498   1.257
  854WAT      O 3481   0.610   2.120   0.952
  854WAT     H1 3482   0.555   2.045   0.973
  854WAT     H2 3483   0.570   2.158   0.874
  854WAT    EPW 3484   0.598   2.115   0.945
  855WAT      O 3485   2.132   1.693   0.718
  855WAT     H1 3486   2.037   1.683   0.729
  855WAT     H2 3487   2.170   1.648   0.793
  855WAT    EPW 3488   2.124   1.686   0.729
  856WAT      O 3489   3.345   1.805   3.757
  856WAT     H1 3490   3.273   1.859   3.727
  856WAT     H2 3491   3.326   1.790   3.850
  856WAT    EPW 3492   3.333   1.810   3.765
  857WAT      O 3493   1.416   3.531   1.862
  857WAT     H1 3494   1.334   3.516   1.816
  857WAT     H2 3495   1.410   3.476   1.941
  857WAT    EPW 3496   1.404   3.522   1.866
  858WAT      O 3497   1.403   2.821   1.839
  858WAT     H1 3498   1.391   2.784   1.926
  858WAT     H2 3499   1.498   2.830   1.830
  858WAT    EPW 3500   1.414   2.817   1.849
  859WAT      O 3501   0.002   2.651   1.743
  859WAT     H1 3502   0.079   2.649   1.687
  859WAT     H2 3503   0.023   2.590   1.814
  859WAT    EPW 3504   0.015   2.643   1.745
  860WAT      O 3505   1.929   3.680   0.489
  860WAT     H1 3506   1.988   3.648   0.557
  860WAT     H2 3507   1.870   3.740   0.535
  860WAT    EPW 3508   1.929   3.684   0.504
  861WAT      O 3509   2.935   1.743   0.481
  861WAT     H1 3510   2.982   1.666   0.513
  861WAT     H2 3511   2.989   1.817   0.508
  861WAT    EPW 3512   2.949   1.742   0.489
  862WAT      O 3513   3.522   3.073   3.822
  862WAT     H1 3514   3.613   3.087   3.846
  862WAT     H2 3515   3.518   2.980   3.799
  862WAT    EPW 3516   3.533   3.063   3.822
  863WAT      O 3517   2.621   3.539   4.013
  863WAT     H1 3518   2.576   3.473   4.066
  863WAT     H2 3519   2.597   3.518   3.923
  863WAT    EPW 3520   2.612   3.527   4.008
  864WAT      O 3521   1.475   3.598   2.558
  864WAT     H1 3522   1.563   3.625   2.530
  864WAT     H2 3523   1.464   3.641   2.643
  864WAT    EPW 3524   1.485   3.607   2.565
  865WAT      O 3525   0.706   1.060   2.891
  865WAT     H1 3526   0.714   1.079   2.797
  865WAT     H2 3527   0.630   1.003   2.897
  865WAT    EPW 3528   0.697   1.055   2.879
  866WAT      O 3529   3.323   1.641   1.578
  866WAT     H1 3530   3.355   1.630   1.488
  866WAT     H2 3531   3.397   1.614   1.632
  866WAT    EPW 3532   3.337   1.636   1.573
  867WAT      O 3533   3.007   1.092   3.473
  867WAT     H1 3534   2.988   1.021   3.533
  867WAT     H2 3535   2.988   1.171   3.522
  867WAT    EPW 3536   3.002   1.093   3.487
  868WAT      O 3537   1.183   2.742   2.740
  868WAT     H1 3538   1.109   2.795   2.709
  868WAT     H2 3539   1.195   2.676   2.672
  868WAT    EPW 3540   1.175   2.740   2.727
  869WAT      O 3541   1.312   0.258   1.792
  869WAT     H1 3542   1.246   0.283   1.856
  869WAT     H2 3543   1.277   0.180   1.750
  869WAT    EPW 3544   1.299   0.251   1.795
  870WAT      O 3545   2.729   3.065   3.871
  870WAT     H1 3546   2.791   3.126   3.832
  870WAT     H2 3547   2.643   3.105   3.856
  870WAT    EPW 3548   2.726   3.078   3.864
  871WAT      O 3549   1.537   4.047   1.922
  871WAT     H1 3550   1.509   4.060   1.831
  871WAT     H2 3551   1.630   4.069   1.921
  871WAT    EPW 3552   1.546   4.051   1.910
  872WAT      O 3553   0.864   2.294   0.583
  872WAT     H1 3554   0.871   2.229   0.652
  872WAT     H2 3555   0.947   2.342   0.586
  872WAT    EPW 3556   0.876   2.292   0.592
  873WAT      O 3557   1.967   0.672   2.373
  873WAT     H1 3558   2.045   0.639   2.329
  873WAT     H2 3559   1.894   0.637   2.322
  873WAT    EPW 3560   1.968   0.663   2.360
  874WAT      O 3561   1.997   3.717   3.155
  874WAT     H1 3562   2.077   3.680   3.117
  874WAT     H2 3563   2.001   3.810   3.133
  874WAT    EPW 3564   2.008   3.724   3.147
  875WAT      O 3565   0.600   2.936   3.458
  875WAT     H1 3566   0.606   2.897   3.545
  875WAT     H2 3567   0.559   3.021   3.471
  875WAT    EPW 3568   0.596   2.942   3.471
  876WAT      O 3569   3.697   2.791   3.125
  876WAT     H1 3570   3.648   2.713   3.101
  876WAT     H2 3571   3.788   2.762   3.132
  876WAT    EPW 3572   3.703   2.777   3.123
  877WAT      O 3573   1.340   2.492   1.355
  877WAT     H1 3574   1.261   2.528   1.394
  877WAT     H2 3575   1.362   2.417   1.409
  877WAT    EPW 3576   1.333   2.487   1.367
  878WAT      O 3577   1.990   2.525   4.032
  878WAT     H1 3578   2.047   2.503   4.106
  878WAT     H2 3579   1.918   2.574   4.072
  878WAT    EPW 3580   1.988   2.529   4.047
  879WAT      O 3581   1.720   2.552   1.804
  879WAT     H1 3582   1.692   2.483   1.743
  879WAT     H2 3583   1.812   2.532   1.821
  879WAT    EPW 3584   1.728   2.540   1.798
  880WAT      O 3585   3.139   2.848   2.098
  880WAT     H1 3586   3.115   2.789   2.027
  880WAT     H2 3587   3.075   2.831   2.166
  880WAT    EPW 3588   3.127   2.838   2.097
  881WAT      O 3589   1.683   0.052   1.645
  881WAT     H1 3590   1.656   0.032   1.734
  881WAT     H2 3591   1.636  -0.012   1.591
  881WAT    EPW 3592   1.673   0.041   1.649
  882WAT      O 3593   1.952   2.881   1.603
  882WAT     H1 3594   1.926   2.844   1.688
  882WAT     H2 3595   1.889   2.951   1.587
  882WAT    EPW 3596   1.941   2.885   1.612
  883WAT      O 3597   2.183   1.142   1.310
  883WAT     H1 3598   2.148   1.116   1.224
  883WAT     H2 3599   2.247   1.073   1.331
  883WAT    EPW 3600   2.187   1.129   1.301
  884WAT      O 3601   2.643   3.374   0.437
  884WAT     H1 3602   2.641   3.373   0.342
  884WAT     H2 3603   2.737   3.370   0.459
  884WAT    EPW 3604   2.655   3.373   0.428
  885WAT      O 3605   0.870   2.006   2.082
  885WAT     H1 3606   0.796   2.053   2.045
  885WAT     H2 3607   0.874   2.034   2.174
  885WAT    EPW 3608   0.861   2.016   2.089
  886WAT      O 3609   1.729   3.196   1.341
  886WAT     H1 3610   1.806   3.177   1.287
  886WAT     H2 3611   1.663   3.226   1.278
  886WAT    EPW 3612   1.730   3.197   1.325
  887WAT      O 3613   3.573   0.691   3.928
  887WAT     H1 3614   3.478   0.684   3.934
  887WAT     H2 3615   3.602   0.604   3.899
  887WAT    EPW 3616   3.564   0.679   3.925
  888WAT      O 3617   3.374   0.277   0.565
  888WAT     H1 3618   3.441   0.332   0.524
  888WAT     H2 3619   3.327   0.337   0.624
  888WAT    EPW 3620   3.376   0.292   0.568
  889WAT      O 3621   2.366   0.616   2.810
  889WAT     H1 3622   2.382   0.523   2.793
  889WAT     H2 3623   2.362   0.622   2.906
  889WAT    EPW 3624   2.368   0.604   2.821
  890WAT      O 3625   2.164   0.029   3.756
  890WAT     H1 3626   2.255   0.036   3.728
  890WAT     H2 3627   2.113   0.039   3.676
  890WAT    EPW 3628   2.169   0.031   3.742
  891WAT      O 3629   2.419   1.206   1.801
  891WAT     H1 3630   2.355   1.141   1.769
  891WAT     H2 3631   2.503   1.175   1.768
  891WAT    EPW 3632   2.421   1.193   1.792
  892WAT      O 3633   3.022   0.521   2.614
  892WAT     H1 3634   2.931   0.499   2.633
  892WAT     H2 3635   3.053   0.566   2.692
  892WAT    EPW 3636   3.014   0.524   2.627
  893WAT      O 3637   0.608   3.158   0.551
  893WAT     H1 3638   0.606   3.183   0.459
  893WAT     H2 3639   0.592   3.064   0.552
  893WAT    EPW 3640   0.606   3.149   0.539
  894WAT      O 3641   0.572   1.051   0.369
  894WAT     H1 3642   0.612   1.138   0.363
  894WAT     H2 3643   0.633   1.000   0.421
  894WAT    EPW 3644   0.585   1.056   0.375
  895WAT      O 3645   2.713   0.140   0.322
  895WAT     H1 3646   2.801   0.156   0.289
  895WAT     H2 3647   2.691   0.219   0.372
  895WAT    EPW 3648   2.721   0.152   0.325
  896WAT      O 3649   2.916   0.683   0.831
  896WAT     H1 3650   2.991   0.651   0.882
  896WAT     H2 3651   2.922   0.637   0.748
  896WAT    EPW 3652   2.927   0.673   0.827
  897WAT      O 3653   2.963   1.750   3.981
  897WAT     H1 3654   2.902   1.814   3.944
  897WAT     H2 3655   2.991   1.788   4.063
  897WAT    EPW 3656   2.958   1.763   3.987
  898WAT      O 3657   3.311   3.274   2.715
  898WAT     H1 3658   3.359   3.347   2.756
  898WAT     H2 3659   3.219   3.298   2.726
  898WAT    EPW 3660   3.305   3.287   2.722
  899WAT      O 3661   3.452   3.426   1.573
  899WAT     H1 3662   3.405   3.504   1.603
  899WAT     H2 3663   3.465   3.374   1.651
  899WAT    EPW 3664   3.448   3.430   1.587
  900WAT      O 3665   2.765   3.754   3.747
  900WAT     H1 3666   2.798   3.751   3.837
  900WAT     H2 3667   2.705   3.679   3.741
  900WAT    EPW 3668   2.761   3.744   3.758
  901WAT      O 3669   3.139   2.090   1.776
  901WAT     H1 3670   3.210   2.149   1.801
  901WAT     H2 3671   3.107   2.056   1.859
  901WAT    EPW 3672   3.144   2.093   1.790
  902WAT      O 3673   2.576   1.120   1.491
  902WAT     H1 3674   2.591   1.084   1.403
  902WAT     H2 3675   2.502   1.179   1.481
  902WAT    EPW 3676   2.568   1.123   1.478
  903WAT      O 3677   2.637   0.004   2.017
  903WAT     H1 3678   2.636   0.098   1.999
  903WAT     H2 3679   2.576  -0.007   2.090
  903WAT    EPW 3680   2.629   0.015   2.024
  904WAT      O 3681   2.677   2.960   0.890
  904WAT     H1 3682   2.621   3.000   0.824
  904WAT     H2 3683   2.637   2.983   0.974
  904WAT    EPW 3684   2.664   2.968   0.893
  905WAT      O 3685   1.583   3.067   0.631
  905WAT     H1 3686   1.560   3.153   0.666
  905WAT     H2 3687   1.600   3.083   0.538
  905WAT    EPW 3688   1.582   3.080   0.623
  906WAT      O 3689   0.465   3.352   1.256
  906WAT     H1 3690   0.437   3.425   1.312
  906WAT     H2 3691   0.430   3.274   1.299
  906WAT    EPW 3692   0.457   3.351   1.269
  907WAT      O 3693   1.411   1.761   3.031
  907WAT     H1 3694   1.501   1.742   3.005
  907WAT     H2 3695   1.417   1.842   3.082
  907WAT    EPW 3696   1.423   1.769   3.034
  908WAT      O 3697   2.576   0.034   3.252
  908WAT     H1 3698   2.490   0.003   3.279
  908WAT     H2 3699   2.623  -0.046   3.227
  908WAT    EPW 3700   2.571   0.019   3.252
  909WAT      O 3701   0.520   2.252   0.731
  909WAT     H1 3702   0.555   2.337   0.706
  909WAT     H2 3703   0.434   2.248   0.688
  909WAT    EPW 3704   0.513   2.263   0.722
  910WAT      O 3705   3.687   3.578   2.497
  910WAT     H1 3706   3.631   3.505   2.469
  910WAT     H2 3707   3.776   3.544   2.488
  910WAT    EPW 3708   3.692   3.564   2.492
  911WAT      O 3709   3.019   3.987   3.545
  911WAT     H1 3710   2.925   4.000   3.542
  911WAT     H2 3711   3.032   3.924   3.617
  911WAT    EPW 3712   3.009   3.980   3.554
  912WAT      O 3713   1.548   1.268   2.501
  912WAT     H1 3714   1.567   1.358   2.525
  912WAT     H2 3715   1.630   1.235   2.464
  912WAT    EPW 3716   1.561   1.275   2.499
  913WAT      O 3717   2.661   2.604   3.657
  913WAT     H1 3718   2.667   2.689   3.614
  913WAT     H2 3719   2.663   2.625   3.751
  913WAT    EPW 3720   2.662   2.618   3.664
  914WAT      O 3721   0.428   3.100   1.414
  914WAT     H1 3722   0.488   3.124   1.484
  914WAT     H2 3723   0.474   3.030   1.367
  914WAT    EPW 3724   0.442   3.094   1.417
  915WAT      O 3725   3.209   1.319   1.454
  915WAT     H1 3726   3.297   1.341   1.486
  915WAT     H2 3727   3.168   1.404   1.437
  915WAT    EPW 3728   3.215   1.333   1.456
  916WAT      O 3729   2.892   1.620   2.860
  916WAT     H1 3730   2.959   1.685   2.881
  916WAT     H2 3731   2.887   1.621   2.764
  916WAT    EPW 3732   2.900   1.628   2.850
  917WAT      O 3733   1.032   1.223   3.069
  917WAT     H1 3734   0.949   1.265   3.091
  917WAT     H2 3735   1.081   1.224   3.150
  917WAT    EPW 3736   1.027   1.229   3.082
  918WAT      O 3737   0.874   3.573   2.837
  918WAT     H1 3738   0.962   3.547   2.808
  918WAT     H2 3739   0.823   3.492   2.834
  918WAT    EPW 3740   0.879   3.559   2.833
  919WAT      O 3741   0.552   0.759   3.016
  919WAT     H1 3742   0.601   0.737   3.095
  919WAT     H2 3743   0.589   0.703   2.948
  919WAT    EPW 3744   0.563   0.749   3.018
  920WAT      O 3745   3.097   1.952   0.123
  920WAT     H1 3746   3.020   2.005   0.143
  920WAT     H2 3747   3.116   1.906   0.204
  920WAT    EPW 3748   3.089   1.953   0.137
  921WAT      O 3749   0.652   2.558   1.893
  921WAT     H1 3750   0.561   2.534   1.872
  921WAT     H2 3751   0.684   2.486   1.946
  921WAT    EPW 3752   0.644   2.545   1.897
  922WAT      O 3753   0.759   1.806   1.690
  922WAT     H1 3754   0.723   1.887   1.725
  922WAT     H2 3755   0.824   1.834   1.625
  922WAT    EPW 3756   0.763   1.820   1.686
  923WAT      O 3757   1.953   2.450   1.903
  923WAT     H1 3758   1.933   2.432   1.995
  923WAT     H2 3759   2.044   2.422   1.892
  923WAT    EPW 3760   1.963   2.444   1.914
  924WAT      O 3761   0.492   1.172   3.950
  924WAT     H1 3762   0.425   1.194   4.014
  924WAT     H2 3763   0.474   1.230   3.876
  924WAT    EPW 3764   0.481   1.183   3.949
  925WAT      O 3765   3.763   2.201   2.696
  925WAT     H1 3766   3.799   2.139   2.759
  925WAT     H2 3767   3.756   2.283   2.745
  925WAT    EPW 3768   3.767   2.203   2.711
  926WAT      O 3769   1.742   3.662   2.471
  926WAT     H1 3770   1.738   3.739   2.527
  926WAT     H2 3771   1.814   3.610   2.508
  926WAT    EPW 3772   1.751   3.665   2.483
  927WAT      O 3773   3.738   0.065   1.608
  927WAT     H1 3774   3.694   0.118   1.674
  927WAT     H2 3775   3.666   0.035   1.551
  927WAT    EPW 3776   3.723   0.068   1.609
  928WAT      O 3777   1.421   0.617   0.879
  928WAT     H1 3778   1.350   0.680   0.866
  928WAT     H2 3779   1.403   0.579   0.965
  928WAT    EPW 3780   1.409   0.620   0.889
  929WAT      O 3781   1.460   2.122   3.531
  929WAT     H1 3782   1.489   2.201   3.578
  929WAT     H2 3783   1.408   2.074   3.595
  929WAT    EPW 3784   1.457   2.126   3.546
  930WAT      O 3785   1.331   0.947   1.766
  930WAT     H1 3786   1.367   0.941   1.855
  930WAT     H2 3787   1.407   0.940   1.709
  930WAT    EPW 3788   1.346   0.945   1.770
  931WAT      O 3789   0.712   2.358   2.984
  931WAT     H1 3790   0.665   2.431   2.944
  931WAT     H2 3791   0.656   2.330   3.056
  931WAT    EPW 3792   0.698   2.364   2.989
  932WAT      O 3793   3.075   1.084   1.180
  932WAT     H1 3794   3.144   1.149   1.195
  932WAT     H2 3795   3.104   1.037   1.102
  932WAT    EPW 3796   3.088   1.087   1.171
  933WAT      O 3797   2.288   2.913   2.474
  933WAT     H1 3798   2.205   2.876   2.442
  933WAT     H2 3799   2.261   2.987   2.529
  933WAT    EPW 3800   2.273   2.918   2.477
  934WAT      O 3801   0.756   1.335   1.301
  934WAT     H1 3802   0.791   1.404   1.245
  934WAT     H2 3803   0.821   1.265   1.296
  934WAT    EPW 3804   0.770   1.335   1.293
  935WAT      O 3805   1.715   2.975   2.427
  935WAT     H1 3806   1.709   3.068   2.447
  935WAT     H2 3807   1.745   2.971   2.337
  935WAT    EPW 3808   1.718   2.987   2.418
  936WAT      O 3809   0.923   0.249   3.507
  936WAT     H1 3810   0.857   0.295   3.559
  936WAT     H2 3811   0.892   0.158   3.506
  936WAT    EPW 3812   0.910   0.243   3.514
  937WAT      O 3813   1.411   0.994   2.045
  937WAT     H1 3814   1.495   0.985   2.089
  937WAT     H2 3815   1.419   1.075   1.995
  937WAT    EPW 3816   1.423   1.004   2.044
  938WAT      O 3817   0.729   0.339   1.360
  938WAT     H1 3818   0.765   0.420   1.323
  938WAT     H2 3819   0.636   0.357   1.372
  938WAT    EPW 3820   0.722   0.352   1.357
  939WAT      O 3821   2.509   0.906   1.676
  939WAT     H1 3822   2.508   0.826   1.623
  939WAT     H2 3823   2.556   0.969   1.622
  939WAT    EPW 3824   2.515   0.903   1.662
  940WAT      O 3825   0.448   3.070   4.066
  940WAT     H1 3826   0.420   3.001   4.005
  940WAT     H2 3827   0.377   3.134   4.064
  940WAT    EPW 3828   0.435   3.070   4.058
  941WAT      O 3829   0.602   3.777   3.346
  941WAT     H1 3830   0.601   3.796   3.440
  941WAT     H2 3831   0.526   3.823   3.311
  941WAT    EPW 3832   0.592   3.786   3.354
  942WAT      O 3833   2.954   3.493   3.655
  942WAT     H1 3834   2.870   3.518   3.615
  942WAT     H2 3835   2.985   3.573   3.697
  942WAT    EPW 3836   2.947   3.507   3.655
  943WAT      O 3837   0.164   1.843   1.116
  943WAT     H1 3838   0.129   1.822   1.029
  943WAT     H2 3839   0.187   1.757   1.153
  943WAT    EPW 3840   0.163   1.829   1.110
  944WAT      O 3841   0.151   2.720   0.026
  944WAT     H1 3842   0.118   2.763   0.105
  944WAT     H2 3843   0.083   2.737  -0.040
  944WAT    EPW 3844   0.137   2.728   0.027
  945WAT      O 3845   1.802   3.897   0.673
  945WAT     H1 3846   1.827   3.897   0.765
  945WAT     H2 3847   1.706   3.900   0.674
  945WAT    EPW 3848   1.793   3.897   0.685
  946WAT      O 3849   1.608   1.086   0.500
  946WAT     H1 3850   1.673   1.065   0.566
  946WAT     H2 3851   1.526   1.049   0.534
  946WAT    EPW 3852   1.606   1.078   0.513
  947WAT      O 3853   0.871   0.908   0.968
  947WAT     H1 3854   0.945   0.873   1.017
  947WAT     H2 3855   0.894   0.894   0.876
  947WAT    EPW 3856   0.884   0.902   0.962
  948WAT      O 3857   3.612   1.339   1.259
  948WAT     H1 3858   3.576   1.423   1.230
  948WAT     H2 3859   3.696   1.362   1.300
  948WAT    EPW 3860   3.618   1.353   1.261
  949WAT      O 3861   0.193   1.277   3.192
  949WAT     H1 3862   0.243   1.274   3.111
  949WAT     H2 3863   0.107   1.240   3.170
  949WAT    EPW 3864   0.188   1.271   3.179
  950WAT      O 3865   0.027   2.368   1.362
  950WAT     H1 3866   0.078   2.413   1.430
  950WAT     H2 3867  -0.016   2.297   1.409
  950WAT    EPW 3868   0.028   2.365   1.377
  951WAT      O 3869   1.261   3.066   1.359
  951WAT     H1 3870   1.344   3.019   1.352
  951WAT     H2 3871   1.273   3.143   1.304
  951WAT    EPW 3872   1.274   3.070   1.351
  952WAT      O 3873   0.202   2.801   1.029
  952WAT     H1 3874   0.117   2.789   0.986
  952WAT     H2 3875   0.216   2.895   1.029
  952WAT    EPW 3876   0.193   2.812   1.023
  953WAT      O 3877   3.378   0.976   1.400
  953WAT     H1 3878   3.367   0.933   1.485
  953WAT     H2 3879   3.290   0.978   1.363
  953WAT    EPW 3880   3.365   0.971   1.406
  954WAT      O 3881   1.078   2.038   2.800
  954WAT     H1 3882   1.118   2.050   2.714
  954WAT     H2 3883   1.083   2.124   2.842
  954WAT    EPW 3884   1.084   2.051   2.794
  955WAT      O 3885   1.441   0.455   2.227
  955WAT     H1 3886   1.410   0.530   2.177
  955WAT     H2 3887   1.481   0.398   2.161
  955WAT    EPW 3888   1.442   0.457   2.211
  956WAT      O 3889   3.715   0.972   1.657
  956WAT     H1 3890   3.659   0.895   1.645
  956WAT     H2 3891   3.720   1.012   1.570
  956WAT    EPW 3892   3.708   0.967   1.644
  957WAT      O 3893   0.339   1.697   0.818
  957WAT     H1 3894   0.332   1.605   0.845
  957WAT     H2 3895   0.379   1.741   0.893
  957WAT    EPW 3896   0.343   1.691   0.832
  958WAT      O 3897   3.029   3.348   2.106
  958WAT     H1 3898   2.983   3.413   2.053
  958WAT     H2 3899   3.019   3.266   2.056
  958WAT    EPW 3900   3.022   3.346   2.092
  959WAT      O 3901   2.157   0.092   3.283
  959WAT     H1 3902   2.227   0.028   3.269
  959WAT     H2 3903   2.100   0.081   3.207
  959WAT    EPW 3904   2.159   0.082   3.271
  960WAT      O 3905   1.372   3.019   2.190
  960WAT     H1 3906   1.305   3.066   2.140
  960WAT     H2 3907   1.372   2.931   2.152
  960WAT    EPW 3908   1.363   3.013   2.178
  961WAT      O 3909   0.089   3.237   2.976
  961WAT     H1 3910   0.123   3.265   2.891
  961WAT     H2 3911   0.047   3.315   3.012
  961WAT    EPW 3912   0.088   3.251   2.970
  962WAT      O 3913   2.216   2.791   0.536
  962WAT     H1 3914   2.255   2.807   0.622
  962WAT     H2 3915   2.291   2.782   0.477
  962WAT    EPW 3916   2.231   2.792   0.539
  963WAT      O 3917   2.430   3.002   1.880
  963WAT     H1 3918   2.343   2.988   1.844
  963WAT     H2 3919   2.428   2.959   1.965
  963WAT    EPW 3920   2.418   2.994   1.886
  964WAT      O 3921   3.122   0.915   3.031
  964WAT     H1 3922   3.075   0.980   2.979
  964WAT     H2 3923   3.072   0.910   3.113
  964WAT    EPW 3924   3.109   0.923   3.035
  965WAT      O 3925   1.794   2.284   4.055
  965WAT     H1 3926   1.728   2.348   4.031
  965WAT     H2 3927   1.867   2.300   3.995
  965WAT    EPW 3928   1.795   2.294   4.044
  966WAT      O 3929   0.873   4.082   3.907
  966WAT     H1 3930   0.804   4.101   3.844
  966WAT     H2 3931   0.855   3.993   3.936
  966WAT    EPW 3932   0.862   4.073   3.902
  967WAT      O 3933   1.660   2.178   0.732
  967WAT     H1 3934   1.642   2.160   0.639
  967WAT     H2 3935   1.661   2.091   0.773
  967WAT    EPW 3936   1.658   2.164   0.725
  968WAT      O 3937   3.096   1.970   2.654
  968WAT     H1 3938   3.106   2.041   2.591
  968WAT     H2 3939   3.045   1.903   2.608
  968WAT    EPW 3940   3.091   1.970   2.640
  969WAT      O 3941   0.227   0.214   1.285
  969WAT     H1 3942   0.188   0.217   1.372
  969WAT     H2 3943   0.306   0.268   1.291
  969WAT    EPW 3944   0.232   0.222   1.297
  970WAT      O 3945   2.271   0.993   0.608
  970WAT     H1 3946   2.343   1.017   0.665
  970WAT     H2 3947   2.206   1.062   0.620
  970WAT    EPW 3948   2.272   1.005   0.617
  971WAT      O 3949   2.264   3.377   2.439
  971WAT     H1 3950   2.216   3.444   2.390
  971WAT     H2 3951   2.197   3.316   2.469
  971WAT    EPW 3952   2.249   3.378   2.436
  972WAT      O 3953   1.308   0.674  -0.002
  972WAT     H1 3954   1.321   0.629   0.081
  972WAT     H2 3955   1.396   0.684  -0.039
  972WAT    EPW 3956   1.321   0.669   0.004
  973WAT      O 3957   1.640   3.324   0.294
  973WAT     H1 3958   1.686   3.332   0.378
  973WAT     H2 3959   1.599   3.238   0.297
  973WAT    EPW 3960   1.641   3.314   0.306
  974WAT      O 3961   1.311   0.370   4.039
  974WAT     H1 3962   1.277   0.454   4.007
  974WAT     H2 3963   1.303   0.311   3.965
  974WAT    EPW 3964   1.305   0.373   4.025
  975WAT      O 3965   0.443   0.728   2.161
  975WAT     H1 3966   0.504   0.666   2.202
  975WAT     H2 3967   0.490   0.763   2.086
  975WAT    EPW 3968   0.457   0.724   2.157
  976WAT      O 3969   3.466   3.323   0.167
  976WAT     H1 3970   3.467   3.384   0.241
  976WAT     H2 3971   3.441   3.378   0.092
  976WAT    EPW 3972   3.463   3.339   0.167
  977WAT      O 3973   3.745   0.034   2.033
  977WAT     H1 3974   3.721   0.098   2.100
  977WAT     H2 3975   3.836   0.012   2.051
  977WAT    EPW 3976   3.754   0.039   2.044
  978WAT      O 3977   1.196   3.935   0.763
  978WAT     H1 3978   1.216   3.848   0.731
  978WAT     H2 3979   1.216   3.993   0.689
  978WAT    EPW 3980   1.201   3.931   0.749
  979WAT      O 3981   2.212   0.384   1.816
  979WAT     H1 3982   2.293   0.341   1.842
  979WAT     H2 3983   2.144   0.337   1.865
  979WAT    EPW 3984   2.213   0.372   1.826
  980WAT      O 3985   0.075   1.404   0.377
  980WAT     H1 3986   0.071   1.496   0.403
  980WAT     H2 3987   0.025   1.399   0.296
  980WAT    EPW 3988   0.068   1.415   0.370
  981WAT      O 3989   2.528   2.788   1.288
  981WAT     H1 3990   2.519   2.871   1.242
  981WAT     H2 3991   2.447   2.741   1.269
  981WAT    EPW 3992   2.516   2.793   1.279
  982WAT      O 3993   2.306   3.831   1.046
  982WAT     H1 3994   2.338   3.869   0.964
  982WAT     H2 3995   2.271   3.905   1.095
  982WAT    EPW 3996   2.306   3.846   1.042
  983WAT      O 3997   0.709   0.473   4.066
  983WAT     H1 3998   0.723   0.547   4.125
  983WAT     H2 3999   0.619   0.445   4.084
  983WAT    EPW 4000   0.699   0.479   4.076
  984WAT      O 4001   0.103   2.465   3.386
  984WAT     H1 4002   0.064   2.465   3.299
  984WAT     H2 4003   0.158   2.543   3.388
  984WAT    EPW 4004   0.105   2.475   3.375
  985WAT      O 4005   2.580   1.400   2.810
  985WAT     H1 4006   2.582   1.495   2.809
  985WAT     H2 4007   2.491   1.377   2.782
  985WAT    EPW 4008   2.568   1.409   2.806
  986WAT      O 4009   0.600   0.957   1.451
  986WAT     H1 4010   0.627   0.865   1.441
  986WAT     H2 4011   0.518   0.963   1.404
  986WAT    EPW 4012   0.593   0.945   1.443
  987WAT      O 4013   2.474   0.248   1.948
  987WAT     H1 4014   2.411   0.283   2.011
  987WAT     H2 4015   2.423   0.186   1.896
  987WAT    EPW 4016   2.459   0.245   1.949
  988WAT      O 4017   1.376   3.576   1.252
  988WAT     H1 4018   1.319   3.635   1.201
  988WAT     H2 4019   1.446   3.632   1.284
  988WAT    EPW 4020   1.377   3.591   1.250
  989WAT      O 4021   1.664   0.475   2.681
  989WAT     H1 4022   1.594   0.503   2.621
  989WAT     H2 4023   1.686   0.553   2.731
  989WAT    EPW 4024   1.657   0.489   2.680
  990WAT      O 4025   2.815   2.282   1.532
  990WAT     H1 4026   2.766   2.214   1.579
  990WAT     H2 4027   2.751   2.318   1.469
  990WAT    EPW 4028   2.800   2.278   1.530
  991WAT      O 4029   0.956   3.209   0.427
  991WAT     H1 4030   0.963   3.297   0.464
  991WAT     H2 4031   1.015   3.156   0.481
  991WAT    EPW 4032   0.965   3.214   0.439
  992WAT      O 4033   1.579   3.371   1.517
  992WAT     H1 4034   1.604   3.294   1.466
  992WAT     H2 4035   1.487   3.385   1.495
  992WAT    EPW 4036   1.570   3.363   1.508
  993WAT      O 4037   1.608   0.941   2.247
  993WAT     H1 4038   1.629   1.034   2.249
  993WAT     H2 4039   1.609   0.914   2.339
  993WAT    EPW 4040   1.611   0.949   2.259
  994WAT      O 4041   1.907   2.305   1.495
  994WAT     H1 4042   1.815   2.295   1.519
  994WAT     H2 4043   1.921   2.400   1.489
  994WAT    EPW 4044   1.897   2.316   1.497
  995WAT      O 4045   1.703   1.026   3.490
  995WAT     H1 4046   1.726   1.119   3.485
  995WAT     H2 4047   1.784   0.980   3.470
  995WAT    EPW 4048   1.717   1.032   3.487
  996WAT      O 4049   3.041   3.035   1.922
  996WAT     H1 4050   3.090   2.981   1.984
  996WAT     H2 4051   2.954   2.996   1.920
  996WAT    EPW 4052   3.036   3.023   1.930
  997WAT      O 4053   1.844   2.633   3.716
  997WAT     H1 4054   1.938   2.645   3.708
  997WAT     H2 4055   1.820   2.681   3.795
  997WAT    EPW 4056   1.853   2.641   3.725
  998WAT      O 4057   2.692   0.244   3.470
  998WAT     H1 4058   2.721   0.153   3.470
  998WAT     H2 4059   2.728   0.282   3.550
  998WAT    EPW 4060   2.700   0.237   3.480
  999WAT      O 4061   2.490   2.337   3.978
  999WAT     H1 4062   2.498   2.281   3.900
  999WAT     H2 4063   2.563   2.311   4.033
  999WAT    EPW 4064   2.500   2.326   3.975
 1000WAT      O 4065   0.714   3.117   4.000
 1000WAT     H1 4066   0.621   3.106   4.022
 1000WAT     H2 4067   0.756   3.042   4.041
 1000WAT    EPW 4068   0.707   3.106   4.008
 1001WAT      O 4069   0.174   2.484   1.018
 1001WAT     H1 4070   0.119   2.406   1.027
 1001WAT     H2 4071   0.222   2.489   1.100
 1001WAT    EPW 4072   0.173   2.474   1.030
 1002WAT      O 4073   3.000   0.337   3.015
 1002WAT     H1 4074   2.970   0.392   3.087
 1002WAT     H2 4075   3.095   0.340   3.019
 1002WAT    EPW 4076   3.009   0.344   3.025
 1003WAT      O 4077   3.719   0.610   0.781
 1003WAT     H1 4078   3.685   0.524   0.758
 1003WAT     H2 4079   3.802   0.617   0.732
 1003WAT    EPW 4080   3.726   0.600   0.771
 1004WAT      O 4081   1.567   3.576   0.625
 1004WAT     H1 4082   1.624   3.503   0.599
 1004WAT     H2 4083   1.600   3.604   0.710
 1004WAT    EPW 4084   1.579   3.570   0.632
 1005WAT      O 4085   1.741   3.590   0.884
 1005WAT     H1 4086   1.795   3.666   0.907
 1005WAT     H2 4087   1.735   3.540   0.966
 1005WAT    EPW 4088   1.748   3.593   0.898
 1006WAT      O 4089   1.107   1.280   2.165
 1006WAT     H1 4090   1.100   1.235   2.081
 1006WAT     H2 4091   1.197   1.262   2.194
 1006WAT    EPW 4092   1.118   1.272   2.158
 1007WAT      O 4093   2.907   3.179   0.052
 1007WAT     H1 4094   2.903   3.132  -0.032
 1007WAT     H2 4095   2.965   3.253   0.034
 1007WAT    EPW 4096   2.914   3.182   0.038
 1008WAT      O 4097   0.914   1.537   2.444
 1008WAT     H1 4098   0.889   1.533   2.351
 1008WAT     H2 4099   0.956   1.452   2.460
 1008WAT    EPW 4100   0.916   1.525   2.434
 1009WAT      O 4101   1.504   1.454   1.653
 1009WAT     H1 4102   1.420   1.409   1.645
 1009WAT     H2 4103   1.496   1.531   1.597
 1009WAT    EPW 4104   1.492   1.458   1.645
 1010WAT      O 4105   0.039   2.244   3.574
 1010WAT     H1 4106   0.116   2.231   3.629
 1010WAT     H2 4107   0.058   2.324   3.525
 1010WAT    EPW 4108   0.052   2.253   3.575
 1011WAT      O 4109   2.713   1.403   1.610
 1011WAT     H1 4110   2.661   1.477   1.578
 1011WAT     H2 4111   2.712   1.340   1.537
 1011WAT    EPW 4112   2.706   1.404   1.596
 1012WAT      O 4113   0.824   2.327   3.291
 1012WAT     H1 4114   0.729   2.316   3.295
 1012WAT     H2 4115   0.853   2.321   3.382
 1012WAT    EPW 4116   0.816   2.325   3.303
 1013WAT      O 4117   0.644   0.848   0.615
 1013WAT     H1 4118   0.627   0.860   0.709
 1013WAT     H2 4119   0.680   0.932   0.586
 1013WAT    EPW 4120   0.646   0.861   0.624
 1014WAT      O 4121   3.278   3.205   3.225
 1014WAT     H1 4122   3.263   3.139   3.158
 1014WAT     H2 4123   3.368   3.234   3.210
 1014WAT    EPW 4124   3.288   3.200   3.214
 1015WAT      O 4125   1.154   3.353   0.954
 1015WAT     H1 4126   1.123   3.337   0.865
 1015WAT     H2 4127   1.162   3.449   0.960
 1015WAT    EPW 4128   1.151   3.364   0.943
 1016WAT      O 4129   3.694   1.056   1.372
 1016WAT     H1 4130   3.745   1.106   1.309
 1016WAT     H2 4131   3.676   0.973   1.328
 1016WAT    EPW 4132   3.698   1.052   1.358
 1017WAT      O 4133   2.258   4.042   2.576
 1017WAT     H1 4134   2.320   4.014   2.508
 1017WAT     H2 4135   2.243   3.963   2.628
 1017WAT    EPW 4136   2.264   4.028   2.574
 1018WAT      O 4137   1.085   1.268   1.085
 1018WAT     H1 4138   1.141   1.322   1.141
 1018WAT     H2 4139   1.052   1.200   1.143
 1018WAT    EPW 4140   1.088   1.266   1.100
 1019WAT      O 4141   1.281   3.394   1.484
 1019WAT     H1 4142   1.197   3.405   1.440
 1019WAT     H2 4143   1.263   3.334   1.556
 1019WAT    EPW 4144   1.268   3.388   1.487
 1020WAT      O 4145   2.979   2.364   1.822
 1020WAT     H1 4146   2.996   2.328   1.735
 1020WAT     H2 4147   2.942   2.290   1.871
 1020WAT    EPW 4148   2.976   2.350   1.817
 1021WAT      O 4149   2.054   3.330   4.052
 1021WAT     H1 4150   2.092   3.244   4.070
 1021WAT     H2 4151   1.990   3.315   3.983
 1021WAT    EPW 4152   2.051   3.317   4.045
 1022WAT      O 4153   1.865   0.586   1.882
 1022WAT     H1 4154   1.883   0.519   1.948
 1022WAT     H2 4155   1.829   0.660   1.931
 1022WAT    EPW 4156   1.863   0.587   1.897
 1023WAT      O 4157   3.777   2.906   0.269
 1023WAT     H1 4158   3.768   2.957   0.349
 1023WAT     H2 4159   3.716   2.947   0.208
 1023WAT    EPW 4160   3.768   2.918   0.271
 1024WAT      O 4161   2.907   1.696   2.565
 1024WAT     H1 4162   2.829   1.747   2.544
 1024WAT     H2 4163   2.952   1.684   2.481
 1024WAT    EPW 4164   2.903   1.701   2.551
 1025WAT      O 4165   0.216   3.856   2.769
 1025WAT     H1 4166   0.170   3.896   2.843
 1025WAT     H2 4167   0.305   3.891   2.775
 1025WAT    EPW 4168   0.222   3.866   2.780
 1026WAT      O 4169   1.736   4.049   3.805
 1026WAT     H1 4170   1.680   4.071   3.731
 1026WAT     H2 4171   1.784   4.129   3.823
 1026WAT    EPW 4172   1.735   4.062   3.798
 1027WAT      O 4173   1.133   0.577   3.693
 1027WAT     H1 4174   1.137   0.658   3.641
 1027WAT     H2 4175   1.044   0.577   3.729
 1027WAT    EPW 4176   1.122   0.588   3.691
 1028WAT      O 4177   1.364   0.495   0.222
 1028WAT     H1 4178   1.390   0.434   0.153
 1028WAT     H2 4179   1.445   0.514   0.269
 1028WAT    EPW 4180   1.378   0.489   0.219
 1029WAT      O 4181   2.153   4.048   0.713
 1029WAT     H1 4182   2.189   3.961   0.728
 1029WAT     H2 4183   2.076   4.034   0.658
 1029WAT    EPW 4184   2.148   4.035   0.708
 1030WAT      O 4185   0.115   2.797   0.611
 1030WAT     H1 4186   0.038   2.845   0.579
 1030WAT     H2 4187   0.164   2.862   0.663
 1030WAT    EPW 4188   0.111   2.812   0.614
 1031WAT      O 4189   3.551   3.958   1.987
 1031WAT     H1 4190   3.469   3.950   2.035
 1031WAT     H2 4191   3.596   4.032   2.028
 1031WAT    EPW 4192   3.546   3.967   1.999
 1032WAT      O 4193   0.905   2.395   0.137
 1032WAT     H1 4194   0.969   2.345   0.187
 1032WAT     H2 4195   0.898   2.349   0.054
 1032WAT    EPW 4196   0.912   2.382   0.133
 1033WAT      O 4197   3.551   3.750   0.692
 1033WAT     H1 4198   3.624   3.718   0.639
 1033WAT     H2 4199   3.574   3.725   0.781
 1033WAT    EPW 4200   3.564   3.742   0.697
 1034WAT      O 4201   2.068   2.468   0.688
 1034WAT     H1 4202   2.122   2.463   0.767
 1034WAT     H2 4203   2.127   2.439   0.617
 1034WAT    EPW 4204   2.083   2.463   0.689
 1035WAT      O 4205   1.979   4.058   0.471
 1035WAT     H1 4206   1.988   4.154   0.470
 1035WAT     H2 4207   1.899   4.042   0.521
 1035WAT    EPW 4208   1.970   4.069   0.478
 1036WAT      O 4209   2.935   3.245   3.379
 1036WAT     H1 4210   2.981   3.310   3.325
 1036WAT     H2 4211   2.867   3.210   3.322
 1036WAT    EPW 4212   2.932   3.249   3.364
 1037WAT      O 4213   3.309   1.478   3.138
 1037WAT     H1 4214   3.349   1.507   3.056
 1037WAT     H2 4215   3.295   1.384   3.126
 1037WAT    EPW 4216   3.312   1.469   3.126
 1038WAT      O 4217   0.683   3.807   1.476
 1038WAT     H1 4218   0.594   3.835   1.457
 1038WAT     H2 4219   0.715   3.871   1.540
 1038WAT    EPW 4220   0.676   3.819   1.482
 1039WAT      O 4221   3.465   2.012   3.542
 1039WAT     H1 4222   3.404   1.940   3.524
 1039WAT     H2 4223   3.502   1.990   3.628
 1039WAT    EPW 4224   3.462   2.000   3.551
 1040WAT      O 4225   1.058   1.806   2.979
 1040WAT     H1 4226   1.107   1.727   2.956
 1040WAT     H2 4227   1.086   1.871   2.914
 1040WAT    EPW 4228   1.068   1.804   2.968
 1041WAT      O 4229   0.278   0.452   3.099
 1041WAT     H1 4230   0.263   0.513   3.027
 1041WAT     H2 4231   0.297   0.369   3.056
 1041WAT    EPW 4232   0.279   0.449   3.084
 1042WAT      O 4233   1.244   2.277   3.418
 1042WAT     H1 4234   1.162   2.229   3.413
 1042WAT     H2 4235   1.308   2.213   3.449
 1042WAT    EPW 4236   1.241   2.262   3.422
 1043WAT      O 4237   0.539   1.866   2.881
 1043WAT     H1 4238   0.483   1.937   2.849
 1043WAT     H2 4239   0.591   1.906   2.950
 1043WAT    EPW 4240   0.538   1.880   2.886
 1044WAT      O 4241   2.832   1.824   2.002
 1044WAT     H1 4242   2.799   1.868   2.081
 1044WAT     H2 4243   2.768   1.845   1.935
 1044WAT    EPW 4244   2.819   1.833   2.004
 1045WAT      O 4245   1.457   0.596   2.488
 1045WAT     H1 4246   1.448   0.569   2.397
 1045WAT     H2 4247   1.489   0.686   2.484
 1045WAT    EPW 4248   1.460   0.604   2.476
 1046WAT      O 4249   2.458   3.144   3.865
 1046WAT     H1 4250   2.385   3.083   3.875
 1046WAT     H2 4251   2.434   3.199   3.791
 1046WAT    EPW 4252   2.445   3.143   3.857
 1047WAT      O 4253   1.238   1.864   0.866
 1047WAT     H1 4254   1.316   1.870   0.921
 1047WAT     H2 4255   1.170   1.908   0.916
 1047WAT    EPW 4256   1.239   1.871   0.880
 1048WAT      O 4257   2.328   3.344   3.685
 1048WAT     H1 4258   2.327   3.410   3.616
 1048WAT     H2 4259   2.293   3.266   3.644
 1048WAT    EPW 4260   2.323   3.343   3.671
 1049WAT      O 4261   0.552   1.630   3.040
 1049WAT     H1 4262   0.556   1.704   2.980
 1049WAT     H2 4263   0.459   1.618   3.058
 1049WAT    EPW 4264   0.541   1.638   3.035
 1050WAT      O 4265   0.734   1.972   3.618
 1050WAT     H1 4266   0.677   2.047   3.601
 1050WAT     H2 4267   0.684   1.918   3.680
 1050WAT    EPW 4268   0.720   1.975   3.624
 1051WAT      O 4269   2.234   1.423   1.763
 1051WAT     H1 4270   2.317   1.386   1.791
 1051WAT     H2 4271   2.193   1.354   1.711
 1051WAT    EPW 4272   2.240   1.409   1.760
 1052WAT      O 4273   0.406   1.764   3.336
 1052WAT     H1 4274   0.332   1.708   3.359
 1052WAT     H2 4275   0.381   1.804   3.253
 1052WAT    EPW 4276   0.393   1.762   3.328
 1053WAT      O 4277   2.051   0.190   0.282
 1053WAT     H1 4278   1.986   0.257   0.301
 1053WAT     H2 4279   2.072   0.204   0.190
 1053WAT    EPW 4280   2.045   0.200   0.272
 1054WAT      O 4281   0.339   3.093   2.756
 1054WAT     H1 4282   0.390   3.116   2.678
 1054WAT     H2 4283   0.368   3.156   2.822
 1054WAT    EPW 4284   0.350   3.105   2.754
 1055WAT      O 4285   2.161   3.872   1.500
 1055WAT     H1 4286   2.116   3.949   1.465
 1055WAT     H2 4287   2.171   3.891   1.594
 1055WAT    EPW 4288   2.156   3.885   1.508
 1056WAT      O 4289   2.076   1.272   1.569
 1056WAT     H1 4290   2.098   1.245   1.480
 1056WAT     H2 4291   1.981   1.282   1.568
 1056WAT    EPW 4292   2.066   1.270   1.557
 1057WAT      O 4293   0.504   0.339   2.698
 1057WAT     H1 4294   0.562   0.365   2.769
 1057WAT     H2 4295   0.562   0.332   2.622
 1057WAT    EPW 4296   0.520   0.341   2.697
 1058WAT      O 4297   0.908   2.960   2.237
 1058WAT     H1 4298   0.874   2.991   2.321
 1058WAT     H2 4299   0.829   2.944   2.184
 1058WAT    EPW 4300   0.893   2.962   2.241
 1059WAT      O 4301   1.634   1.083   0.885
 1059WAT     H1 4302   1.579   1.161   0.874
 1059WAT     H2 4303   1.640   1.071   0.980
 1059WAT    EPW 4304   1.628   1.092   0.896
 1060WAT      O 4305   0.227   2.287   1.717
 1060WAT     H1 4306   0.185   2.331   1.643
 1060WAT     H2 4307   0.256   2.203   1.682
 1060WAT    EPW 4308   0.225   2.282   1.702
 1061WAT      O 4309   1.661   1.691   1.212
 1061WAT     H1 4310   1.652   1.773   1.163
 1061WAT     H2 4311   1.742   1.702   1.262
 1061WAT    EPW 4312   1.670   1.704   1.212
 1062WAT      O 4313   1.005   0.565   3.343
 1062WAT     H1 4314   1.029   0.487   3.294
 1062WAT     H2 4315   0.921   0.544   3.383
 1062WAT    EPW 4316   0.997   0.552   3.342
 1063WAT      O 4317   1.644   1.971   0.063
 1063WAT     H1 4318   1.597   1.960  -0.020
 1063WAT     H2 4319   1.735   1.986   0.037
 1063WAT    EPW 4320   1.649   1.972   0.049
 1064WAT      O 4321   2.193   3.561   3.954
 1064WAT     H1 4322   2.147   3.568   3.870
 1064WAT     H2 4323   2.144   3.496   4.003
 1064WAT    EPW 4324   2.180   3.554   3.949
 1065WAT      O 4325   2.695   0.258   2.290
 1065WAT     H1 4326   2.739   0.230   2.210
 1065WAT     H2 4327   2.760   0.243   2.359
 1065WAT    EPW 4328   2.709   0.252   2.289
 1066WAT      O 4329   1.654   0.037   2.522
 1066WAT     H1 4330   1.627  -0.054   2.509
 1066WAT     H2 4331   1.592   0.089   2.470
 1066WAT    EPW 4332   1.642   0.032   2.514
 1067WAT      O 4333   1.687   2.845   1.767
 1067WAT     H1 4334   1.770   2.876   1.802
 1067WAT     H2 4335   1.691   2.749   1.777
 1067WAT    EPW 4336   1.698   2.836   1.773
 1068WAT      O 4337   2.810   0.775   3.447
 1068WAT     H1 4338   2.782   0.723   3.523
 1068WAT     H2 4339   2.763   0.858   3.456
 1068WAT    EPW 4340   2.800   0.779   3.459
 1069WAT      O 4341   2.351   0.619   1.751
 1069WAT     H1 4342   2.379   0.659   1.833
 1069WAT     H2 4343   2.315   0.534   1.776
 1069WAT    EPW 4344   2.350   0.613   1.765
 1070WAT      O 4345   2.061   1.077   1.081
 1070WAT     H1 4346   1.996   1.025   1.128
 1070WAT     H2 4347   2.056   1.046   0.991
 1070WAT    EPW 4348   2.052   1.066   1.075
 1071WAT      O 4349   3.277   1.538   3.690
 1071WAT     H1 4350   3.294   1.632   3.695
 1071WAT     H2 4351   3.219   1.528   3.615
 1071WAT    EPW 4352   3.272   1.549   3.681
 1072WAT      O 4353   1.459   2.580   3.334
 1072WAT     H1 4354   1.457   2.635   3.256
 1072WAT     H2 4355   1.478   2.492   3.301
 1072WAT    EPW 4356   1.461   2.576   3.319
 1073WAT      O 4357   3.152   0.949   2.639
 1073WAT     H1 4358   3.207   1.020   2.672
 1073WAT     H2 4359   3.091   0.992   2.579
 1073WAT    EPW 4360   3.151   0.964   2.635
 1074WAT      O 4361   1.051   2.791   3.644
 1074WAT     H1 4362   1.115   2.732   3.603
 1074WAT     H2 4363   1.060   2.873   3.596
 1074WAT    EPW 4364   1.061   2.794   3.633
 1075WAT      O 4365   2.472   1.844   1.960
 1075WAT     H1 4366   2.421   1.814   1.885
 1075WAT     H2 4367   2.487   1.765   2.012
 1075WAT    EPW 4368   2.467   1.830   1.957
 1076WAT      O 4369   3.565   1.878   2.456
 1076WAT     H1 4370   3.644   1.910   2.412
 1076WAT     H2 4371   3.510   1.956   2.466
 1076WAT    EPW 4372   3.568   1.893   2.452
 1077WAT      O 4373   3.025   2.647   1.920
 1077WAT     H1 4374   3.007   2.566   1.873
 1077WAT     H2 4375   2.975   2.714   1.874
 1077WAT    EPW 4376   3.016   2.645   1.908
 1078WAT      O 4377   1.590   0.062   4.040
 1078WAT     H1 4378   1.611   0.007   3.965
 1078WAT     H2 4379   1.670   0.062   4.093
 1078WAT    EPW 4380   1.604   0.055   4.037
 1079WAT      O 4381   2.777   0.398   1.557
 1079WAT     H1 4382   2.726   0.456   1.614
 1079WAT     H2 4383   2.866   0.434   1.561
 1079WAT    EPW 4384   2.782   0.411   1.565
 1080WAT      O 4385   3.512   3.332   2.419
 1080WAT     H1 4386   3.526   3.304   2.510
 1080WAT     H2 4387   3.511   3.251   2.369
 1080WAT    EPW 4388   3.514   3.318   2.425
 1081WAT      O 4389   2.095   2.843   3.381
 1081WAT     H1 4390   2.052   2.854   3.466
 1081WAT     H2 4391   2.148   2.764   3.390
 1081WAT    EPW 4392   2.096   2.834   3.393
 1082WAT      O 4393   0.707   3.380   0.984
 1082WAT     H1 4394   0.792   3.359   1.024
 1082WAT     H2 4395   0.651   3.306   1.005
 1082WAT    EPW 4396   0.711   3.368   0.992
 1083WAT      O 4397   0.549   3.154   2.573
 1083WAT     H1 4398   0.601   3.212   2.628
 1083WAT     H2 4399   0.578   3.172   2.484
 1083WAT    EPW 4400   0.560   3.164   2.569
 1084WAT      O 4401   3.459   2.999   1.470
 1084WAT     H1 4402   3.532   3.039   1.517
 1084WAT     H2 4403   3.399   2.969   1.539
 1084WAT    EPW 4404   3.461   3.000   1.485
 1085WAT      O 4405   2.993   3.832   1.635
 1085WAT     H1 4406   2.950   3.760   1.589
 1085WAT     H2 4407   2.926   3.900   1.641
 1085WAT    EPW 4408   2.978   3.831   1.629
 1086WAT      O 4409   1.306   3.297   1.201
 1086WAT     H1 4410   1.272   3.315   1.113
 1086WAT     H2 4411   1.346   3.379   1.228
 1086WAT    EPW 4412   1.307   3.310   1.193
 1087WAT      O 4413   0.030   3.345   0.202
 1087WAT     H1 4414  -0.013   3.264   0.174
 1087WAT     H2 4415  -0.021   3.414   0.160
 1087WAT    EPW 4416   0.018   3.343   0.192
 1088WAT      O 4417   1.978   1.360   1.146
 1088WAT     H1 4418   2.023   1.313   1.216
 1088WAT     H2 4419   2.001   1.313   1.066
 1088WAT    EPW 4420   1.987   1.348   1.144
 1089WAT      O 4421   0.735   2.895   2.551
 1089WAT     H1 4422   0.697   2.961   2.609
 1089WAT     H2 4423   0.660   2.856   2.507
 1089WAT    EPW 4424   0.720   2.899   2.553
 1090WAT      O 4425   2.356   0.920   1.309
 1090WAT     H1 4426   2.378   0.894   1.220
 1090WAT     H2 4427   2.353   0.837   1.358
 1090WAT    EPW 4428   2.358   0.905   1.304
 1091WAT      O 4429   0.443   0.322   1.121
 1091WAT     H1 4430   0.389   0.257   1.076
 1091WAT     H2 4431   0.391   0.402   1.119
 1091WAT    EPW 4432   0.429   0.324   1.115
 1092WAT      O 4433   2.702   1.161   0.588
 1092WAT     H1 4434   2.775   1.215   0.558
 1092WAT     H2 4435   2.656   1.136   0.508
 1092WAT    EPW 4436   2.705   1.165   0.574
 1093WAT      O 4437   0.456   0.902   2.601
 1093WAT     H1 4438   0.478   0.989   2.634
 1093WAT     H2 4439   0.465   0.909   2.506
 1093WAT    EPW 4440   0.460   0.914   2.593
 1094WAT      O 4441   2.101   4.017   1.088
 1094WAT     H1 4442   2.125   4.097   1.041
 1094WAT     H2 4443   2.058   4.048   1.167
 1094WAT    EPW 4444   2.099   4.032   1.092
 1095WAT      O 4445   2.654   1.687   3.623
 1095WAT     H1 4446   2.564   1.657   3.634
 1095WAT     H2 4447   2.698   1.617   3.575
 1095WAT    EPW 4448   2.648   1.674   3.618
 1096WAT      O 4449   1.166   0.062   0.876
 1096WAT     H1 4450   1.203   0.093   0.793
 1096WAT     H2 4451   1.191  -0.031   0.880
 1096WAT    EPW 4452   1.174   0.054   0.865
 1097WAT      O 4453   2.792   2.208   2.222
 1097WAT     H1 4454   2.737   2.277   2.185
 1097WAT     H2 4455   2.851   2.255   2.282
 1097WAT    EPW 4456   2.793   2.223   2.225
 1098WAT      O 4457   3.457   2.432   1.462
 1098WAT     H1 4458   3.417   2.349   1.433
 1098WAT     H2 4459   3.487   2.414   1.551
 1098WAT    EPW 4460   3.455   2.418   1.470
 1099WAT      O 4461   2.398   3.197   2.212
 1099WAT     H1 4462   2.356   3.225   2.293
 1099WAT     H2 4463   2.368   3.106   2.200
 1099WAT    EPW 4464   2.388   3.189   2.221
 1100WAT      O 4465   3.751   2.078   0.224
 1100WAT     H1 4466   3.837   2.097   0.261
 1100WAT     H2 4467   3.713   2.164   0.207
 1100WAT    EPW 4468   3.757   2.091   0.227
 1101WAT      O 4469   0.967   1.913   3.215
 1101WAT     H1 4470   0.999   1.878   3.132
 1101WAT     H2 4471   0.916   1.841   3.253
 1101WAT    EPW 4472   0.964   1.899   3.209
 1102WAT      O 4473   1.506   2.921   1.210
 1102WAT     H1 4474   1.601   2.916   1.225
 1102WAT     H2 4475   1.498   2.959   1.122
 1102WAT    EPW 4476   1.518   2.925   1.200
 1103WAT      O 4477   2.128   3.102   2.007
 1103WAT     H1 4478   2.155   3.194   2.011
 1103WAT     H2 4479   2.105   3.080   2.097
 1103WAT    EPW 4480   2.128   3.112   2.019
 1104WAT      O 4481   3.673   1.466   2.280
 1104WAT     H1 4482   3.714   1.392   2.237
 1104WAT     H2 4483   3.744   1.528   2.295
 1104WAT    EPW 4484   3.688   1.465   2.277
 1105WAT      O 4485   2.891   3.250   0.449
 1105WAT     H1 4486   2.963   3.309   0.469
 1105WAT     H2 4487   2.920   3.202   0.371
 1105WAT    EPW 4488   2.904   3.251   0.441
 1106WAT      O 4489   2.777   1.195   2.736
 1106WAT     H1 4490   2.723   1.272   2.750
 1106WAT     H2 4491   2.760   1.139   2.812
 1106WAT    EPW 4492   2.767   1.198   2.748
 1107WAT      O 4493   1.194   1.121   3.304
 1107WAT     H1 4494   1.288   1.130   3.294
 1107WAT     H2 4495   1.176   1.029   3.283
 1107WAT    EPW 4496   1.204   1.110   3.300
 1108WAT      O 4497   2.924   3.022   1.050
 1108WAT     H1 4498   2.969   2.982   0.975
 1108WAT     H2 4499   2.880   3.098   1.013
 1108WAT    EPW 4500   2.924   3.026   1.035
 1109WAT      O 4501   0.233   2.950   2.045
 1109WAT     H1 4502   0.283   2.891   1.989
 1109WAT     H2 4503   0.221   3.029   1.991
 1109WAT    EPW 4504   0.238   2.953   2.030
 1110WAT      O 4505   3.383   1.076   1.812
 1110WAT     H1 4506   3.471   1.109   1.798
 1110WAT     H2 4507   3.379   1.056   1.906
 1110WAT    EPW 4508   3.394   1.077   1.823
 1111WAT      O 4509   2.110   1.812   1.823
 1111WAT     H1 4510   2.094   1.905   1.841
 1111WAT     H2 4511   2.201   1.809   1.794
 1111WAT    EPW 4512   2.120   1.824   1.821
 1112WAT      O 4513   1.496   3.983   1.303
 1112WAT     H1 4514   1.423   3.983   1.365
 1112WAT     H2 4515   1.464   4.033   1.228
 1112WAT    EPW 4516   1.482   3.990   1.302
 1113WAT      O 4517   2.290   3.103   3.536
 1113WAT     H1 4518   2.375   3.063   3.523
 1113WAT     H2 4519   2.245   3.045   3.597
 1113WAT    EPW 4520   2.295   3.090   3.543
 1114WAT      O 4521   3.054   2.301   3.825
 1114WAT     H1 4522   2.987   2.336   3.884
 1114WAT     H2 4523   3.100   2.378   3.792
 1114WAT    EPW 4524   3.051   2.316   3.829
 1115WAT      O 4525   1.152   1.919   1.265
 1115WAT     H1 4526   1.233   1.903   1.314
 1115WAT     H2 4527   1.088   1.943   1.332
 1115WAT    EPW 4528   1.155   1.920   1.280
 1116WAT      O 4529   3.217   1.866   3.471
 1116WAT     H1 4530   3.153   1.929   3.503
 1116WAT     H2 4531   3.166   1.807   3.414
 1116WAT    EPW 4532   3.202   1.866   3.467
 1117WAT      O 4533   3.237   3.825   1.007
 1117WAT     H1 4534   3.182   3.868   1.072
 1117WAT     H2 4535   3.196   3.740   0.994
 1117WAT    EPW 4536   3.224   3.820   1.014
 1118WAT      O 4537   0.508   2.726   2.428
 1118WAT     H1 4538   0.477   2.773   2.351
 1118WAT     H2 4539   0.553   2.649   2.392
 1118WAT    EPW 4540   0.510   2.722   2.413
 1119WAT      O 4541   1.513   0.029   3.641
 1119WAT     H1 4542   1.451   0.083   3.691
 1119WAT     H2 4543   1.556   0.091   3.582
 1119WAT    EPW 4544   1.511   0.045   3.640
 1120WAT      O 4545   3.652   3.390   0.826
 1120WAT     H1 4546   3.618   3.338   0.899
 1120WAT     H2 4547   3.692   3.466   0.868
 1120WAT    EPW 4548   3.653   3.393   0.841
 1121WAT      O 4549   0.697   0.049   3.710
 1121WAT     H1 4550   0.723   0.137   3.738
 1121WAT     H2 4551   0.617   0.031   3.760
 1121WAT    EPW 4552   0.690   0.058   3.720
 1122WAT      O 4553   2.115   3.844   0.314
 1122WAT     H1 4554   2.071   3.779   0.370
 1122WAT     H2 4555   2.106   3.926   0.362
 1122WAT    EPW 4556   2.108   3.846   0.328
 1123WAT      O 4557   3.354   2.096   2.510
 1123WAT     H1 4558   3.406   2.176   2.516
 1123WAT     H2 4559   3.351   2.063   2.600
 1123WAT    EPW 4560   3.360   2.103   2.523
 1124WAT      O 4561   3.472   3.840   1.425
 1124WAT     H1 4562   3.414   3.915   1.414
 1124WAT     H2 4563   3.511   3.851   1.512
 1124WAT    EPW 4564   3.470   3.851   1.435
 1125WAT      O 4565   1.868   2.347   1.109
 1125WAT     H1 4566   1.881   2.255   1.135
 1125WAT     H2 4567   1.779   2.349   1.074
 1125WAT    EPW 4568   1.858   2.335   1.108
 1126WAT      O 4569   1.438   0.158   2.384
 1126WAT     H1 4570   1.470   0.145   2.295
 1126WAT     H2 4571   1.378   0.232   2.378
 1126WAT    EPW 4572   1.434   0.166   2.372
 1127WAT      O 4573   1.213   4.137   0.550
 1127WAT     H1 4574   1.141   4.199   0.541
 1127WAT     H2 4575   1.223   4.099   0.462
 1127WAT    EPW 4576   1.205   4.140   0.537
 1128WAT      O 4577   1.807   0.688   1.472
 1128WAT     H1 4578   1.839   0.670   1.384
 1128WAT     H2 4579   1.884   0.720   1.519
 1128WAT    EPW 4580   1.821   0.690   1.467
 1129WAT      O 4581   0.958   3.933   0.896
 1129WAT     H1 4582   0.962   4.022   0.929
 1129WAT     H2 4583   1.041   3.921   0.849
 1129WAT    EPW 4584   0.970   3.943   0.894
 1130WAT      O 4585   2.061   2.476   1.262
 1130WAT     H1 4586   2.017   2.535   1.323
 1130WAT     H2 4587   1.991   2.423   1.225
 1130WAT    EPW 4588   2.046   2.476   1.265
 1131WAT      O 4589   0.772   2.518   0.419
 1131WAT     H1 4590   0.811   2.440   0.457
 1131WAT     H2 4591   0.835   2.548   0.353
 1131WAT    EPW 4592   0.785   2.512   0.415
 1132WAT      O 4593   0.239   1.785   1.487
 1132WAT     H1 4594   0.327   1.779   1.525
 1132WAT     H2 4595   0.245   1.734   1.406
 1132WAT    EPW 4596   0.252   1.778   1.481
 1133WAT      O 4597   0.812   2.884   3.301
 1133WAT     H1 4598   0.814   2.788   3.298
 1133WAT     H2 4599   0.749   2.905   3.369
 1133WAT    EPW 4600   0.804   2.874   3.310
 1134WAT      O 4601   0.107   0.958   1.916
 1134WAT     H1 4602   0.058   0.949   1.834
 1134WAT     H2 4603   0.161   1.036   1.903
 1134WAT    EPW 4604   0.108   0.967   1.903
 1135WAT      O 4605   2.242   2.883   3.919
 1135WAT     H1 4606   2.172   2.920   3.865
 1135WAT     H2 4607   2.228   2.788   3.915
 1135WAT    EPW 4608   2.231   2.875   3.912
 1136WAT      O 4609   3.420   1.573   2.264
 1136WAT     H1 4610   3.377   1.583   2.349
 1136WAT     H2 4611   3.497   1.520   2.282
 1136WAT    EPW 4612   3.424   1.568   2.277
 1137WAT      O 4613   3.771   1.885   2.043
 1137WAT     H1 4614   3.763   1.980   2.046
 1137WAT     H2 4615   3.694   1.853   2.090
 1137WAT    EPW 4616   3.760   1.893   2.050
 1138WAT      O 4617   2.417   3.775   1.473
 1138WAT     H1 4618   2.439   3.771   1.380
 1138WAT     H2 4619   2.340   3.831   1.477
 1138WAT    EPW 4620   2.410   3.782   1.461
 1139WAT      O 4621   2.077   0.113   0.877
 1139WAT     H1 4622   2.121   0.042   0.831
 1139WAT     H2 4623   2.125   0.192   0.851
 1139WAT    EPW 4624   2.089   0.114   0.867
 1140WAT      O 4625   2.381   2.710   3.698
 1140WAT     H1 4626   2.460   2.677   3.741
 1140WAT     H2 4627   2.410   2.788   3.650
 1140WAT    EPW 4628   2.395   2.716   3.697
 1141WAT      O 4629   3.600   3.230   2.674
 1141WAT     H1 4630   3.561   3.265   2.754
 1141WAT     H2 4631   3.624   3.140   2.695
 1141WAT    EPW 4632   3.598   3.223   2.687
 1142WAT      O 4633   2.324   2.554   4.053
 1142WAT     H1 4634   2.264   2.525   4.122
 1142WAT     H2 4635   2.395   2.489   4.054
 1142WAT    EPW 4636   2.326   2.542   4.062
 1143WAT      O 4637   1.055   1.675   1.279
 1143WAT     H1 4638   1.103   1.753   1.251
 1143WAT     H2 4639   0.968   1.708   1.302
 1143WAT    EPW 4640   1.050   1.690   1.278
 1144WAT      O 4641   0.406   1.919   0.081
 1144WAT     H1 4642   0.356   1.964   0.013
 1144WAT     H2 4643   0.388   1.968   0.161
 1144WAT    EPW 4644   0.397   1.931   0.082
 1145WAT      O 4645   1.678   1.365   4.092
 1145WAT     H1 4646   1.629   1.343   4.013
 1145WAT     H2 4647   1.672   1.460   4.098
 1145WAT    EPW 4648   1.671   1.375   4.082
 1146WAT      O 4649   0.447   2.743   2.162
 1146WAT     H1 4650   0.535   2.755   2.127
 1146WAT     H2 4651   0.401   2.824   2.139
 1146WAT    EPW 4652   0.453   2.755   2.154
 1147WAT      O 4653   0.216   3.525   3.610
 1147WAT     H1 4654   0.227   3.435   3.579
 1147WAT     H2 4655   0.126   3.529   3.641
 1147WAT    EPW 4656   0.206   3.514   3.610
 1148WAT      O 4657   3.495   2.797   2.847
 1148WAT     H1 4658   3.561   2.863   2.872
 1148WAT     H2 4659   3.422   2.849   2.814
 1148WAT    EPW 4660   3.494   2.813   2.846
 1149WAT      O 4661   3.418   2.923   3.115
 1149WAT     H1 4662   3.353   2.972   3.064
 1149WAT     H2 4663   3.501   2.939   3.069
 1149WAT    EPW 4664   3.420   2.932   3.102
 1150WAT      O 4665   2.960   0.340   0.376
 1150WAT     H1 4666   3.035   0.397   0.361
 1150WAT     H2 4667   2.900   0.392   0.430
 1150WAT    EPW 4668   2.962   0.354   0.381
 1151WAT      O 4669   1.161   4.044   0.264
 1151WAT     H1 4670   1.141   4.134   0.237
 1151WAT     H2 4671   1.077   4.008   0.291
 1151WAT    EPW 4672   1.147   4.051   0.264
 1152WAT      O 4673   2.682   3.054   1.711
 1152WAT     H1 4674   2.708   3.116   1.779
 1152WAT     H2 4675   2.604   3.012   1.746
 1152WAT    EPW 4676   2.675   3.057   1.725
 1153WAT      O 4677   2.705   3.882   0.882
 1153WAT     H1 4678   2.716   3.897   0.976
 1153WAT     H2 4679   2.795   3.871   0.849
 1153WAT    EPW 4680   2.719   3.882   0.890
 1154WAT      O 4681   3.367   0.143   3.339
 1154WAT     H1 4682   3.313   0.098   3.404
 1154WAT     H2 4683   3.307   0.163   3.267
 1154WAT    EPW 4684   3.352   0.140   3.338
 1155WAT      O 4685   0.294   0.515   3.663
 1155WAT     H1 4686   0.331   0.431   3.689
 1155WAT     H2 4687   0.265   0.501   3.573
 1155WAT    EPW 4688   0.295   0.502   3.655
 1156WAT      O 4689   2.981   0.366   0.813
 1156WAT     H1 4690   2.931   0.371   0.895
 1156WAT     H2 4691   2.934   0.423   0.753
 1156WAT    EPW 4692   2.969   0.374   0.816
 1157WAT      O 4693   0.200   0.772   1.592
 1157WAT     H1 4694   0.134   0.829   1.631
 1157WAT     H2 4695   0.284   0.812   1.616
 1157WAT    EPW 4696   0.202   0.785   1.600
 1158WAT      O 4697   0.665   3.673   2.583
 1158WAT     H1 4698   0.590   3.625   2.617
 1158WAT     H2 4699   0.682   3.741   2.649
 1158WAT    EPW 4700   0.657   3.676   2.596
 1159WAT      O 4701   3.181   0.081   1.595
 1159WAT     H1 4702   3.106   0.089   1.654
 1159WAT     H2 4703   3.197   0.170   1.565
 1159WAT    EPW 4704   3.173   0.094   1.599
 1160WAT      O 4705   0.229   3.286   1.087
 1160WAT     H1 4706   0.152   3.310   1.138
 1160WAT     H2 4707   0.301   3.335   1.127
 1160WAT    EPW 4708   0.228   3.296   1.099
 1161WAT      O 4709   0.147   4.103   3.685
 1161WAT     H1 4710   0.126   4.118   3.777
 1161WAT     H2 4711   0.091   4.030   3.659
 1161WAT    EPW 4712   0.137   4.096   3.694
 1162WAT      O 4713   0.091   0.854   1.116
 1162WAT     H1 4714   0.178   0.894   1.113
 1162WAT     H2 4715   0.066   0.845   1.024
 1162WAT    EPW 4716   0.099   0.858   1.104
 1163WAT      O 4717   1.633   3.367   1.789
 1163WAT     H1 4718   1.617   3.346   1.697
 1163WAT     H2 4719   1.567   3.433   1.810
 1163WAT    EPW 4720   1.622   3.373   1.780
 1164WAT      O 4721   3.093   1.705   3.277
 1164WAT     H1 4722   3.003   1.722   3.247
 1164WAT     H2 4723   3.090   1.616   3.312
 1164WAT    EPW 4724   3.080   1.695   3.278
 1165WAT      O 4725   0.292   3.389   0.249
 1165WAT     H1 4726   0.198   3.376   0.235
 1165WAT     H2 4727   0.333   3.352   0.171
 1165WAT    EPW 4728   0.285   3.382   0.237
 1166WAT      O 4729   2.614   2.626   3.930
 1166WAT     H1 4730   2.656   2.671   4.003
 1166WAT     H2 4731   2.587   2.541   3.966
 1166WAT    EPW 4732   2.616   2.621   3.944
 1167WAT      O 4733   1.059   3.146   2.787
 1167WAT     H1 4734   1.043   3.075   2.725
 1167WAT     H2 4735   1.014   3.118   2.867
 1167WAT    EPW 4736   1.051   3.133   2.790
 1168WAT      O 4737   1.867   2.861   0.347
 1168WAT     H1 4738   1.939   2.924   0.342
 1168WAT     H2 4739   1.902   2.789   0.399
 1168WAT    EPW 4740   1.881   2.860   0.354
 1169WAT      O 4741   3.212   3.942   0.750
 1169WAT     H1 4742   3.235   3.874   0.687
 1169WAT     H2 4743   3.221   3.900   0.835
 1169WAT    EPW 4744   3.216   3.928   0.753
 1170WAT      O 4745   2.345   0.875   3.284
 1170WAT     H1 4746   2.325   0.781   3.279
 1170WAT     H2 4747   2.278   0.917   3.231
 1170WAT    EPW 4748   2.334   0.868   3.276
 1171WAT      O 4749   2.592   0.958   2.724
 1171WAT     H1 4750   2.531   0.974   2.652
 1171WAT     H2 4751   2.677   0.983   2.689
 1171WAT    EPW 4752   2.595   0.963   2.710
 1172WAT      O 4753   1.189   4.122   1.755
 1172WAT     H1 4754   1.193   4.041   1.807
 1172WAT     H2 4755   1.138   4.098   1.678
 1172WAT    EPW 4756   1.183   4.108   1.752
 1173WAT      O 4757   3.586   2.510   1.189
 1173WAT     H1 4758   3.669   2.466   1.204
 1173WAT     H2 4759   3.539   2.502   1.272
 1173WAT    EPW 4760   3.591   2.503   1.202
 1174WAT      O 4761   0.908   2.825   1.373
 1174WAT     H1 4762   0.967   2.752   1.390
 1174WAT     H2 4763   0.942   2.864   1.292
 1174WAT    EPW 4764   0.921   2.821   1.365
 1175WAT      O 4765   0.427   4.128   2.628
 1175WAT     H1 4766   0.368   4.079   2.571
 1175WAT     H2 4767   0.370   4.187   2.677
 1175WAT    EPW 4768   0.412   4.129   2.627
 1176WAT      O 4769   1.668   2.419   3.491
 1176WAT     H1 4770   1.761   2.429   3.514
 1176WAT     H2 4771   1.668   2.355   3.420
 1176WAT    EPW 4772   1.681   2.412   3.485
 1177WAT      O 4773   3.724   3.093   1.565
 1177WAT     H1 4774   3.763   3.068   1.481
 1177WAT     H2 4775   3.768   3.037   1.629
 1177WAT    EPW 4776   3.735   3.082   1.562
 1178WAT      O 4777   0.126   0.751   0.357
 1178WAT     H1 4778   0.134   0.814   0.286
 1178WAT     H2 4779   0.053   0.695   0.331
 1178WAT    EPW 4780   0.117   0.752   0.345
 1179WAT      O 4781   3.295   1.036   2.092
 1179WAT     H1 4782   3.261   1.124   2.107
 1179WAT     H2 4783   3.360   1.023   2.161
 1179WAT    EPW 4784   3.299   1.046   2.103
 1180WAT      O 4785   3.308   2.806   0.903
 1180WAT     H1 4786   3.364   2.733   0.878
 1180WAT     H2 4787   3.360   2.854   0.969
 1180WAT    EPW 4788   3.322   2.803   0.909
 1181WAT      O 4789   2.583   1.987   2.818
 1181WAT     H1 4790   2.514   2.046   2.789
 1181WAT     H2 4791   2.602   1.932   2.742
 1181WAT    EPW 4792   2.577   1.987   2.804
 1182WAT      O 4793   1.631   0.409   4.013
 1182WAT     H1 4794   1.549   0.363   4.033
 1182WAT     H2 4795   1.699   0.349   4.044
 1182WAT    EPW 4796   1.629   0.395   4.019
 1183WAT      O 4797   1.396   3.118   1.821
 1183WAT     H1 4798   1.429   3.162   1.900
 1183WAT     H2 4799   1.364   3.033   1.853
 1183WAT    EPW 4800   1.396   3.112   1.836
 1184WAT      O 4801   2.981   0.290   1.775
 1184WAT     H1 4802   2.894   0.275   1.738
 1184WAT     H2 4803   3.007   0.206   1.812
 1184WAT    EPW 4804   2.973   0.277   1.775
 1185WAT      O 4805   1.916   3.980   3.106
 1185WAT     H1 4806   1.916   3.962   3.012
 1185WAT     H2 4807   1.926   4.075   3.112
 1185WAT    EPW 4808   1.917   3.991   3.095
 1186WAT      O 4809   0.440   1.279   3.639
 1186WAT     H1 4810   0.377   1.233   3.584
 1186WAT     H2 4811   0.412   1.371   3.634
 1186WAT    EPW 4812   0.428   1.285   3.631
 1187WAT      O 4813   1.292   4.045   2.397
 1187WAT     H1 4814   1.273   4.050   2.491
 1187WAT     H2 4815   1.339   4.127   2.379
 1187WAT    EPW 4816   1.296   4.057   2.407
 1188WAT      O 4817   0.711   3.343   3.276
 1188WAT     H1 4818   0.629   3.372   3.236
 1188WAT     H2 4819   0.752   3.424   3.307
 1188WAT    EPW 4820   0.705   3.358   3.275
 1189WAT      O 4821   1.730   0.120   2.229
 1189WAT     H1 4822   1.817   0.160   2.228
 1189WAT     H2 4823   1.742   0.037   2.276
 1189WAT    EPW 4824   1.743   0.114   2.235
 1190WAT      O 4825   0.539   2.352   0.405
 1190WAT     H1 4826   0.465   2.378   0.460
 1190WAT     H2 4827   0.610   2.412   0.429
 1190WAT    EPW 4828   0.539   2.363   0.415
 1191WAT      O 4829   3.354   3.083   1.973
 1191WAT     H1 4830   3.417   3.124   2.032
 1191WAT     H2 4831   3.355   3.138   1.895
 1191WAT    EPW 4832   3.363   3.096   1.971
 1192WAT      O 4833   1.296   2.450   3.717
 1192WAT     H1 4834   1.388   2.424   3.719
 1192WAT     H2 4835   1.276   2.464   3.625
 1192WAT    EPW 4836   1.305   2.448   3.705
 1193WAT      O 4837   2.587   1.646   1.505
 1193WAT     H1 4838   2.569   1.614   1.416
 1193WAT     H2 4839   2.616   1.736   1.493
 1193WAT    EPW 4840   2.589   1.654   1.492
 1194WAT      O 4841   2.724   0.299   3.791
 1194WAT     H1 4842   2.763   0.361   3.852
 1194WAT     H2 4843   2.712   0.219   3.842
 1194WAT    EPW 4844   2.728   0.297   3.806
 1195WAT      O 4845   0.844   2.867   0.356
 1195WAT     H1 4846   0.881   2.787   0.317
 1195WAT     H2 4847   0.889   2.938   0.310
 1195WAT    EPW 4848   0.855   2.865   0.344
 1196WAT      O 4849   1.688   0.636   3.072
 1196WAT     H1 4850   1.662   0.688   3.148
 1196WAT     H2 4851   1.777   0.665   3.053
 1196WAT    EPW 4852   1.696   0.647   3.080
 1197WAT      O 4853   0.394   2.778   4.001
 1197WAT     H1 4854   0.363   2.774   3.911
 1197WAT     H2 4855   0.314   2.777   4.054
 1197WAT    EPW 4856   0.380   2.778   3.996
 1198WAT      O 4857   1.235   1.148   4.053
 1198WAT     H1 4858   1.244   1.243   4.045
 1198WAT     H2 4859   1.187   1.135   4.134
 1198WAT    EPW 4860   1.230   1.159   4.063
 1199WAT      O 4861   2.806   1.069   3.919
 1199WAT     H1 4862   2.804   0.975   3.935
 1199WAT     H2 4863   2.842   1.077   3.831
 1199WAT    EPW 4864   2.810   1.058   3.909
 1200WAT      O 4865   3.627   2.350   3.756
 1200WAT     H1 4866   3.675   2.320   3.679
 1200WAT     H2 4867   3.560   2.284   3.771
 1200WAT    EPW 4868   3.625   2.338   3.748
 1201WAT      O 4869   2.661   0.397   3.204
 1201WAT     H1 4870   2.711   0.329   3.249
 1201WAT     H2 4871   2.619   0.351   3.131
 1201WAT    EPW 4872   2.662   0.382   3.201
 1202WAT      O 4873   0.960   2.477   1.221
 1202WAT     H1 4874   1.007   2.524   1.291
 1202WAT     H2 4875   0.897   2.422   1.268
 1202WAT    EPW 4876   0.958   2.476   1.237
 1203WAT      O 4877   0.711   0.596   2.207
 1203WAT     H1 4878   0.737   0.685   2.183
 1203WAT     H2 4879   0.732   0.544   2.129
 1203WAT    EPW 4880   0.717   0.601   2.193
 1204WAT      O 4881   0.233   3.440   2.184
 1204WAT     H1 4882   0.259   3.467   2.096
 1204WAT     H2 4883   0.157   3.384   2.171
 1204WAT    EPW 4884   0.227   3.436   2.171
 1205WAT      O 4885   2.427   4.129   0.210
 1205WAT     H1 4886   2.496   4.196   0.215
 1205WAT     H2 4887   2.379   4.138   0.293
 1205WAT    EPW 4888   2.429   4.139   0.222
 1206WAT      O 4889   2.714   1.060   2.989
 1206WAT     H1 4890   2.620   1.065   2.971
 1206WAT     H2 4891   2.724   0.981   3.041
 1206WAT    EPW 4892   2.703   1.051   2.993
 1207WAT      O 4893   2.111   2.191   1.010
 1207WAT     H1 4894   2.078   2.152   1.091
 1207WAT     H2 4895   2.046   2.257   0.987
 1207WAT    EPW 4896   2.098   2.194   1.018
 1208WAT      O 4897   1.524   3.645   0.346
 1208WAT     H1 4898   1.514   3.571   0.286
 1208WAT     H2 4899   1.530   3.604   0.433
 1208WAT    EPW 4900   1.523   3.630   0.350
 1209WAT      O 4901   0.018   2.303   3.986
 1209WAT     H1 4902  -0.015   2.323   3.899
 1209WAT     H2 4903   0.057   2.216   3.979
 1209WAT    EPW 4904   0.019   2.294   3.974
 1210WAT      O 4905   1.215   1.980   3.680
 1210WAT     H1 4906   1.131   1.987   3.725
 1210WAT     H2 4907   1.220   1.888   3.652
 1210WAT    EPW 4908   1.205   1.968   3.682
 1211WAT      O 4909   2.462   1.755   2.381
 1211WAT     H1 4910   2.503   1.831   2.341
 1211WAT     H2 4911   2.524   1.684   2.366
 1211WAT    EPW 4912   2.476   1.755   2.374
 1212WAT      O 4913   2.265   0.331   2.134
 1212WAT     H1 4914   2.280   0.333   2.229
 1212WAT     H2 4915   2.212   0.252   2.120
 1212WAT    EPW 4916   2.260   0.320   2.145
 1213WAT      O 4917   3.473   0.001   1.493
 1213WAT     H1 4918   3.444   0.078   1.445
 1213WAT     H2 4919   3.441   0.015   1.582
 1213WAT    EPW 4920   3.465   0.013   1.499
 1214WAT      O 4921   1.002   2.111   3.456
 1214WAT     H1 4922   0.936   2.128   3.523
 1214WAT     H2 4923   0.956   2.060   3.390
 1214WAT    EPW 4924   0.987   2.106   3.456
 1215WAT      O 4925   0.235   0.217   1.591
 1215WAT     H1 4926   0.143   0.201   1.614
 1215WAT     H2 4927   0.245   0.312   1.597
 1215WAT    EPW 4928   0.224   0.227   1.594
 1216WAT      O 4929   3.022   0.272   3.507
 1216WAT     H1 4930   3.080   0.226   3.567
 1216WAT     H2 4931   2.991   0.348   3.557
 1216WAT    EPW 4932   3.026   0.276   3.521
 1217WAT      O 4933   3.309   3.970   2.126
 1217WAT     H1 4934   3.261   3.965   2.043
 1217WAT     H2 4935   3.251   3.928   2.189
 1217WAT    EPW 4936   3.295   3.964   2.123
 1218WAT      O 4937   0.506   1.757   3.769
 1218WAT     H1 4938   0.578   1.786   3.825
 1218WAT     H2 4939   0.431   1.809   3.797
 1218WAT    EPW 4940   0.506   1.767   3.780
 1219WAT      O 4941   0.458   2.057   3.884
 1219WAT     H1 4942   0.491   2.103   3.807
 1219WAT     H2 4943   0.529   2.063   3.948
 1219WAT    EPW 4944   0.472   2.064   3.882
 1220WAT      O 4945   1.357   0.061   3.381
 1220WAT     H1 4946   1.317   0.135   3.426
 1220WAT     H2 4947   1.369  -0.005   3.450
 1220WAT    EPW 4948   1.353   0.062   3.396
 1221WAT      O 4949   2.389   1.741   1.693
 1221WAT     H1 4950   2.483   1.720   1.694
 1221WAT     H2 4951   2.360   1.713   1.606
 1221WAT    EPW 4952   2.398   1.734   1.682
 1222WAT      O 4953   0.982   3.123   1.445
 1222WAT     H1 4954   0.966   3.030   1.460
 1222WAT     H2 4955   1.074   3.128   1.419
 1222WAT    EPW 4956   0.992   3.112   1.443
 1223WAT      O 4957   3.747   1.285   3.492
 1223WAT     H1 4958   3.665   1.271   3.445
 1223WAT     H2 4959   3.721   1.284   3.585
 1223WAT    EPW 4960   3.733   1.283   3.498
 1224WAT      O 4961   3.042   0.707   1.743
 1224WAT     H1 4962   3.024   0.789   1.788
 1224WAT     H2 4963   3.053   0.643   1.813
 1224WAT    EPW 4964   3.041   0.709   1.758
 1225WAT      O 4965   1.581   0.833   3.969
 1225WAT     H1 4966   1.515   0.831   3.900
 1225WAT     H2 4967   1.537   0.876   4.043
 1225WAT    EPW 4968   1.566   0.838   3.970
 1226WAT      O 4969   1.632   2.745   3.531
 1226WAT     H1 4970   1.610   2.678   3.466
 1226WAT     H2 4971   1.681   2.699   3.598
 1226WAT    EPW 4972   1.636   2.730   3.531
 1227WAT      O 4973   1.199   2.315   2.014
 1227WAT     H1 4974   1.218   2.360   1.932
 1227WAT     H2 4975   1.161   2.231   1.987
 1227WAT    EPW 4976   1.196   2.310   2.000
 1228WAT      O 4977   0.463   0.317   1.938
 1228WAT     H1 4978   0.520   0.375   1.989
 1228WAT     H2 4979   0.520   0.276   1.874
 1228WAT    EPW 4980   0.478   0.319   1.937
 1229WAT      O 4981   2.512   2.660   2.855
 1229WAT     H1 4982   2.476   2.611   2.781
 1229WAT     H2 4983   2.435   2.693   2.902
 1229WAT    EPW 4984   2.497   2.658   2.852
 1230WAT      O 4985   3.046   2.619   3.828
 1230WAT     H1 4986   3.111   2.670   3.876
 1230WAT     H2 4987   2.964   2.666   3.841
 1230WAT    EPW 4988   3.044   2.632   3.836
 1231WAT      O 4989   2.269   2.771   3.008
 1231WAT     H1 4990   2.209   2.722   3.065
 1231WAT     H2 4991   2.222   2.780   2.925
 1231WAT    EPW 4992   2.255   2.766   3.005
 1232WAT      O 4993   3.044   2.475   4.072
 1232WAT     H1 4994   3.043   2.526   3.991
 1232WAT     H2 4995   3.132   2.437   4.074
 1232WAT    EPW 4996   3.056   2.476   4.061
 1233WAT      O 4997   3.501   2.251   3.355
 1233WAT     H1 4998   3.489   2.159   3.376
 1233WAT     H2 4999   3.482   2.297   3.436
 1233WAT    EPW 5000   3.496   2.245   3.368
 1234WAT      O 5001   0.444   0.286   3.315
 1234WAT     H1 5002   0.375   0.352   3.323
 1234WAT     H2 5003   0.408   0.221   3.255
 1234WAT    EPW 5004   0.430   0.286   3.308
 1235WAT      O 5005   3.659   1.496   0.150
 1235WAT     H1 5006   3.609   1.558   0.202
 1235WAT     H2 5007   3.694   1.548   0.077
 1235WAT    EPW 5008   3.657   1.511   0.147
 1236WAT      O 5009   3.222   3.089   2.980
 1236WAT     H1 5010   3.207   3.182   2.965
 1236WAT     H2 5011   3.134   3.052   2.986
 1236WAT    EPW 5012   3.208   3.096   2.979
 1237WAT      O 5013   2.781   0.077   1.683
 1237WAT     H1 5014   2.783   0.015   1.757
 1237WAT     H2 5015   2.688   0.097   1.672
 1237WAT    EPW 5016   2.769   0.071   1.692
 1238WAT      O 5017   2.074   3.198   2.527
 1238WAT     H1 5018   2.123   3.165   2.602
 1238WAT     H2 5019   1.983   3.201   2.557
 1238WAT    EPW 5020   2.069   3.194   2.541
 1239WAT      O 5021   1.584   1.818   0.615
 1239WAT     H1 5022   1.616   1.735   0.578
 1239WAT     H2 5023   1.601   1.883   0.548
 1239WAT    EPW 5024   1.591   1.815   0.601
 1240WAT      O 5025   2.665   3.082   1.439
 1240WAT     H1 5026   2.727   3.019   1.401
 1240WAT     H2 5027   2.675   3.071   1.534
 1240WAT    EPW 5028   2.675   3.072   1.447
 1241WAT      O 5029   0.334   3.843   0.677
 1241WAT     H1 5030   0.275   3.918   0.683
 1241WAT     H2 5031   0.413   3.877   0.634
 1241WAT    EPW 5032   0.337   3.857   0.672
 1242WAT      O 5033   3.084   0.229   2.166
 1242WAT     H1 5034   3.003   0.227   2.115
 1242WAT     H2 5035   3.079   0.152   2.223
 1242WAT    EPW 5036   3.073   0.218   2.167
 1243WAT      O 5037   1.731   3.417   3.304
 1243WAT     H1 5038   1.695   3.505   3.290
 1243WAT     H2 5039   1.797   3.407   3.236
 1243WAT    EPW 5040   1.735   3.427   3.293
 1244WAT      O 5041   0.208   2.613   3.117
 1244WAT     H1 5042   0.299   2.641   3.106
 1244WAT     H2 5043   0.176   2.599   3.028
 1244WAT    EPW 5044   0.216   2.615   3.104
 1245WAT      O 5045   1.307   3.017   3.370
 1245WAT     H1 5046   1.322   3.039   3.278
 1245WAT     H2 5047   1.215   2.990   3.373
 1245WAT    EPW 5048   1.297   3.016   3.358
 1246WAT      O 5049   2.247   1.480   0.584
 1246WAT     H1 5050   2.314   1.453   0.647
 1246WAT     H2 5051   2.220   1.567   0.614
 1246WAT    EPW 5052   2.252   1.488   0.597
 1247WAT      O 5053   1.106   1.590   0.761
 1247WAT     H1 5054   1.136   1.591   0.670
 1247WAT     H2 5055   1.074   1.679   0.777
 1247WAT    EPW 5056   1.106   1.602   0.751
 1248WAT      O 5057   2.041   3.779   2.521
 1248WAT     H1 5058   2.089   3.766   2.603
 1248WAT     H2 5059   2.010   3.869   2.526
 1248WAT    EPW 5060   2.043   3.789   2.533
 1249WAT      O 5061   3.258   3.207   3.913
 1249WAT     H1 5062   3.217   3.291   3.890
 1249WAT     H2 5063   3.348   3.214   3.882
 1249WAT    EPW 5064   3.264   3.219   3.906
 1250WAT      O 5065   0.525   4.043   0.034
 1250WAT     H1 5066   0.474   4.081   0.106
 1250WAT     H2 5067   0.612   4.027   0.072
 1250WAT    EPW 5068   0.530   4.046   0.049
 1251WAT      O 5069   2.341   0.873   0.068
 1251WAT     H1 5070   2.260   0.824   0.081
 1251WAT     H2 5071   2.368   0.852  -0.022
 1251WAT    EPW 5072   2.334   0.864   0.058
 1252WAT      O 5073   2.369   3.348   2.970
 1252WAT     H1 5074   2.381   3.259   3.003
 1252WAT     H2 5075   2.322   3.337   2.888
 1252WAT    EPW 5076   2.365   3.335   2.963
 1253WAT      O 5077   2.498   1.665   3.075
 1253WAT     H1 5078   2.571   1.604   3.084
 1253WAT     H2 5079   2.483   1.698   3.164
 1253WAT    EPW 5080   2.506   1.661   3.088
 1254WAT      O 5081   2.522   3.104   0.333
 1254WAT     H1 5082   2.451   3.087   0.395
 1254WAT     H2 5083   2.596   3.130   0.388
 1254WAT    EPW 5084   2.522   3.105   0.348
 1255WAT      O 5085   1.911   1.576   1.312
 1255WAT     H1 5086   1.936   1.508   1.249
 1255WAT     H2 5087   1.993   1.618   1.337
 1255WAT    EPW 5088   1.925   1.573   1.307
 1256WAT      O 5089   0.724   3.344   2.792
 1256WAT     H1 5090   0.714   3.280   2.862
 1256WAT     H2 5091   0.768   3.296   2.722
 1256WAT    EPW 5092   0.728   3.329   2.792
 1257WAT      O 5093   1.023   2.706   0.859
 1257WAT     H1 5094   0.949   2.655   0.892
 1257WAT     H2 5095   1.000   2.726   0.769
 1257WAT    EPW 5096   1.010   2.702   0.852
 1258WAT      O 5097   2.241   1.959   1.543
 1258WAT     H1 5098   2.331   1.983   1.521
 1258WAT     H2 5099   2.229   1.993   1.632
 1258WAT    EPW 5100   2.252   1.967   1.552
 1259WAT      O 5101   0.576   2.488   3.416
 1259WAT     H1 5102   0.657   2.520   3.456
 1259WAT     H2 5103   0.553   2.411   3.469
 1259WAT    EPW 5104   0.584   2.482   3.428
 1260WAT      O 5105   0.383   2.120   2.915
 1260WAT     H1 5106   0.391   2.153   3.004
 1260WAT     H2 5107   0.289   2.106   2.903
 1260WAT    EPW 5108   0.372   2.122   2.925
 1261WAT      O 5109   2.937   3.879   0.690
 1261WAT     H1 5110   2.917   3.956   0.638
 1261WAT     H2 5111   3.027   3.893   0.720
 1261WAT    EPW 5112   2.947   3.891   0.687
 1262WAT      O 5113   1.062   3.521   0.156
 1262WAT     H1 5114   1.123   3.584   0.195
 1262WAT     H2 5115   1.110   3.439   0.155
 1262WAT    EPW 5116   1.076   3.519   0.161
 1263WAT      O 5117   2.673   3.324   0.147
 1263WAT     H1 5118   2.732   3.258   0.110
 1263WAT     H2 5119   2.587   3.302   0.111
 1263WAT    EPW 5120   2.669   3.312   0.137
 1264WAT      O 5121   3.322   1.305   0.753
 1264WAT     H1 5122   3.397   1.298   0.811
 1264WAT     H2 5123   3.328   1.228   0.696
 1264WAT    EPW 5124   3.333   1.294   0.753
 1265WAT      O 5125   3.369   0.502   1.917
 1265WAT     H1 5126   3.377   0.563   1.991
 1265WAT     H2 5127   3.275   0.487   1.910
 1265WAT    EPW 5128   3.358   0.508   1.926
 1266WAT      O 5129   1.321   0.508   1.170
 1266WAT     H1 5130   1.250   0.573   1.163
 1266WAT     H2 5131   1.373   0.537   1.245
 1266WAT    EPW 5132   1.318   0.521   1.179
 1267WAT      O 5133   2.609   2.389   2.086
 1267WAT     H1 5134   2.684   2.447   2.103
 1267WAT     H2 5135   2.547   2.409   2.155
 1267WAT    EPW 5136   2.611   2.400   2.097
 1268WAT      O 5137   1.448   4.003   0.975
 1268WAT     H1 5138   1.434   4.004   0.880
 1268WAT     H2 5139   1.486   3.917   0.992
 1268WAT    EPW 5140   1.451   3.992   0.965
 1269WAT      O 5141   3.297   2.708   3.628
 1269WAT     H1 5142   3.212   2.665   3.635
 1269WAT     H2 5143   3.280   2.800   3.651
 1269WAT    EPW 5144   3.284   2.715   3.632
 1270WAT      O 5145   0.126   1.649   2.351
 1270WAT     H1 5146   0.161   1.629   2.264
 1270WAT     H2 5147   0.096   1.740   2.344
 1270WAT    EPW 5148   0.127   1.658   2.338
 1271WAT      O 5149   3.238   0.317   1.139
 1271WAT     H1 5150   3.290   0.354   1.067
 1271WAT     H2 5151   3.302   0.270   1.193
 1271WAT    EPW 5152   3.254   0.316   1.137
 1272WAT      O 5153   0.051   1.471   0.927
 1272WAT     H1 5154   0.140   1.435   0.928
 1272WAT     H2 5155  -0.004   1.399   0.896
 1272WAT    EPW 5156   0.055   1.457   0.923
 1273WAT      O 5157   2.286   3.159   3.248
 1273WAT     H1 5158   2.262   3.155   3.341
 1273WAT     H2 5159   2.210   3.122   3.202
 1273WAT    EPW 5160   2.273   3.154   3.254
 1274WAT      O 5161   1.212   3.300   0.163
 1274WAT     H1 5162   1.259   3.306   0.079
 1274WAT     H2 5163   1.279   3.316   0.229
 1274WAT    EPW 5164   1.227   3.303   0.160
 1275WAT      O 5165   1.985   3.363   0.217
 1275WAT     H1 5166   2.003   3.381   0.125
 1275WAT     H2 5167   1.907   3.415   0.237
 1275WAT    EPW 5168   1.977   3.372   0.207
 1276WAT      O 5169   1.592   4.112   0.324
 1276WAT     H1 5170   1.520   4.053   0.349
 1276WAT     H2 5171   1.634   4.068   0.250
 1276WAT    EPW 5172   1.588   4.098   0.318
 1277WAT      O 5173   0.370   3.994   3.498
 1277WAT     H1 5174   0.447   4.048   3.481
 1277WAT     H2 5175   0.322   4.042   3.566
 1277WAT    EPW 5176   0.374   4.007   3.505
 1278WAT      O 5177   1.028   2.463   1.814
 1278WAT     H1 5178   1.048   2.388   1.758
 1278WAT     H2 5179   1.101   2.524   1.799
 1278WAT    EPW 5180   1.040   2.461   1.804
 1279WAT      O 5181   0.427   0.682   0.914
 1279WAT     H1 5182   0.444   0.621   0.843
 1279WAT     H2 5183   0.381   0.755   0.873
 1279WAT    EPW 5184   0.423   0.684   0.899
 1280WAT      O 5185   1.880   0.457   0.852
 1280WAT     H1 5186   1.800   0.476   0.803
 1280WAT     H2 5187   1.935   0.411   0.789
 1280WAT    EPW 5188   1.876   0.453   0.837
 1281WAT      O 5189   1.001   0.919   0.717
 1281WAT     H1 5190   1.072   0.943   0.656
 1281WAT     H2 5191   0.936   0.876   0.661
 1281WAT    EPW 5192   1.002   0.916   0.701
 1282WAT      O 5193   1.611   0.818   3.274
 1282WAT     H1 5194   1.593   0.815   3.368
 1282WAT     H2 5195   1.533   0.779   3.234
 1282WAT    EPW 5196   1.598   0.813   3.281
 1283WAT      O 5197   0.042   2.930   1.818
 1283WAT     H1 5198   0.049   2.835   1.802
 1283WAT     H2 5199   0.078   2.941   1.906
 1283WAT    EPW 5200   0.048   2.919   1.828
 1284WAT      O 5201   0.502   1.430   3.285
 1284WAT     H1 5202   0.456   1.514   3.286
 1284WAT     H2 5203   0.485   1.395   3.198
 1284WAT    EPW 5204   0.494   1.436   3.274
 1285WAT      O 5205   2.855   3.483   1.908
 1285WAT     H1 5206   2.798   3.550   1.946
 1285WAT     H2 5207   2.834   3.484   1.814
 1285WAT    EPW 5208   2.845   3.492   1.900
 1286WAT      O 5209   1.689   3.175   1.990
 1286WAT     H1 5210   1.683   3.260   1.947
 1286WAT     H2 5211   1.754   3.127   1.939
 1286WAT    EPW 5212   1.697   3.180   1.978
 1287WAT      O 5213   0.403   1.991   0.557
 1287WAT     H1 5214   0.342   2.020   0.625
 1287WAT     H2 5215   0.377   1.901   0.538
 1287WAT    EPW 5216   0.392   1.983   0.563
 1288WAT      O 5217   0.863   3.952   2.602
 1288WAT     H1 5218   0.818   3.931   2.684
 1288WAT     H2 5219   0.816   4.027   2.567
 1288WAT    EPW 5220   0.851   3.959   2.608
 1289WAT      O 5221   2.994   3.328   2.651
 1289WAT     H1 5222   3.001   3.367   2.564
 1289WAT     H2 5223   2.943   3.249   2.637
 1289WAT    EPW 5224   2.988   3.323   2.637
 1290WAT      O 5225   2.406   3.780   0.457
 1290WAT     H1 5226   2.331   3.820   0.413
 1290WAT     H2 5227   2.374   3.694   0.485
 1290WAT    EPW 5228   2.392   3.774   0.455
 1291WAT      O 5229   1.992   3.772   4.078
 1291WAT     H1 5230   1.930   3.745   4.146
 1291WAT     H2 5231   1.953   3.740   3.997
 1291WAT    EPW 5232   1.978   3.764   4.076
 1292WAT      O 5233   2.688   1.440   0.366
 1292WAT     H1 5234   2.717   1.382   0.296
 1292WAT     H2 5235   2.705   1.528   0.333
 1292WAT    EPW 5236   2.694   1.444   0.353
 1293WAT      O 5237   3.420   0.516   1.378
 1293WAT     H1 5238   3.387   0.584   1.319
 1293WAT     H2 5239   3.514   0.512   1.360
 1293WAT    EPW 5240   3.428   0.524   1.368
 1294WAT      O 5241   1.734   3.627   3.085
 1294WAT     H1 5242   1.796   3.670   3.143
 1294WAT     H2 5243   1.667   3.693   3.068
 1294WAT    EPW 5244   1.733   3.641   3.090
 1295WAT      O 5245   2.165   2.511   0.964
 1295WAT     H1 5246   2.143   2.469   1.048
 1295WAT     H2 5247   2.216   2.588   0.989
 1295WAT    EPW 5248   2.169   2.515   0.979
 1296WAT      O 5249   0.711   0.019   0.330
 1296WAT     H1 5250   0.738   0.067   0.251
 1296WAT     H2 5251   0.696   0.087   0.395
 1296WAT    EPW 5252   0.713   0.034   0.328
 1297WAT      O 5253   0.477   1.110   1.060
 1297WAT     H1 5254   0.557   1.162   1.050
 1297WAT     H2 5255   0.493   1.030   1.010
 1297WAT    EPW 5256   0.489   1.107   1.053
 1298WAT      O 5257   1.693   1.714   3.009
 1298WAT     H1 5258   1.711   1.722   2.915
 1298WAT     H2 5259   1.639   1.635   3.016
 1298WAT    EPW 5260   1.688   1.705   2.997
 1299WAT      O 5261   3.464   3.404   1.133
 1299WAT     H1 5262   3.514   3.483   1.155
 1299WAT     H2 5263   3.464   3.353   1.214
 1299WAT    EPW 5264   3.471   3.408   1.147
 1300WAT      O 5265   2.662   3.049   2.486
 1300WAT     H1 5266   2.672   3.061   2.391
 1300WAT     H2 5267   2.588   3.104   2.510
 1300WAT    EPW 5268   2.653   3.058   2.476
 1301WAT      O 5269   1.914   4.059   2.491
 1301WAT     H1 5270   1.986   4.101   2.538
 1301WAT     H2 5271   1.842   4.122   2.497
 1301WAT    EPW 5272   1.914   4.073   2.498
 1302WAT      O 5273   2.252   4.026   0.004
 1302WAT     H1 5274   2.303   4.070   0.072
 1302WAT     H2 5275   2.161   4.049   0.022
 1302WAT    EPW 5276   2.247   4.035   0.015
 1303WAT      O 5277   1.024   1.242   0.507
 1303WAT     H1 5278   1.038   1.329   0.470
 1303WAT     H2 5279   1.032   1.183   0.432
 1303WAT    EPW 5280   1.027   1.246   0.492
 1304WAT      O 5281   0.744   3.549   2.183
 1304WAT     H1 5282   0.824   3.501   2.204
 1304WAT     H2 5283   0.723   3.596   2.264
 1304WAT    EPW 5284   0.751   3.549   2.197
 1305WAT      O 5285   3.601   2.413   2.235
 1305WAT     H1 5286   3.679   2.469   2.231
 1305WAT     H2 5287   3.530   2.472   2.260
 1305WAT    EPW 5288   3.602   2.428   2.238
 1306WAT      O 5289   3.563   3.459   3.433
 1306WAT     H1 5290   3.526   3.468   3.345
 1306WAT     H2 5291   3.565   3.547   3.468
 1306WAT    EPW 5292   3.558   3.472   3.426
 1307WAT      O 5293   2.508   0.584   3.398
 1307WAT     H1 5294   2.445   0.512   3.397
 1307WAT     H2 5295   2.582   0.549   3.449
 1307WAT    EPW 5296   2.509   0.570   3.405
 1308WAT      O 5297   0.328   0.034   2.014
 1308WAT     H1 5298   0.392  -0.037   2.026
 1308WAT     H2 5299   0.375   0.114   2.038
 1308WAT    EPW 5300   0.343   0.035   2.018
 1309WAT      O 5301   0.263   2.399   0.505
 1309WAT     H1 5302   0.195   2.413   0.572
 1309WAT     H2 5303   0.214   2.374   0.427
 1309WAT    EPW 5304   0.247   2.397   0.504
 1310WAT      O 5305   1.681   2.921   0.128
 1310WAT     H1 5306   1.735   2.862   0.179
 1310WAT     H2 5307   1.609   2.867   0.096
 1310WAT    EPW 5308   1.679   2.906   0.130
 1311WAT      O 5309   1.536   1.345   0.878
 1311WAT     H1 5310   1.477   1.421   0.885
 1311WAT     H2 5311   1.595   1.354   0.953
 1311WAT    EPW 5312   1.536   1.357   0.889
 1312WAT      O 5313   0.829   1.829   1.015
 1312WAT     H1 5314   0.864   1.839   1.104
 1312WAT     H2 5315   0.817   1.918   0.984
 1312WAT    EPW 5316   0.832   1.842   1.023
 1313WAT      O 5317   3.647   4.094   0.845
 1313WAT     H1 5318   3.576   4.157   0.855
 1313WAT     H2 5319   3.610   4.011   0.874
 1313WAT    EPW 5320   3.633   4.091   0.850
 1314WAT      O 5321   1.051   2.987   3.104
 1314WAT     H1 5322   1.105   2.911   3.123
 1314WAT     H2 5323   0.999   3.000   3.183
 1314WAT    EPW 5324   1.051   2.978   3.117
 1315WAT      O 5325   3.209   2.453   2.601
 1315WAT     H1 5326   3.297   2.491   2.601
 1315WAT     H2 5327   3.161   2.504   2.536
 1315WAT    EPW 5328   3.214   2.465   2.592
 1316WAT      O 5329   0.236   3.237   3.581
 1316WAT     H1 5330   0.169   3.242   3.513
 1316WAT     H2 5331   0.312   3.198   3.537
 1316WAT    EPW 5332   0.237   3.233   3.566
 1317WAT      O 5333   0.177   0.654   0.617
 1317WAT     H1 5334   0.227   0.734   0.635
 1317WAT     H2 5335   0.139   0.670   0.530
 1317WAT    EPW 5336   0.179   0.667   0.608
 1318WAT      O 5337   0.713   3.022   2.854
 1318WAT     H1 5338   0.637   3.025   2.911
 1318WAT     H2 5339   0.773   2.960   2.897
 1318WAT    EPW 5340   0.711   3.014   2.867
 1319WAT      O 5341   1.222   0.691   2.999
 1319WAT     H1 5342   1.274   0.672   3.078
 1319WAT     H2 5343   1.244   0.619   2.939
 1319WAT    EPW 5344   1.232   0.679   3.002
 1320WAT      O 5345   3.282   0.685   3.922
 1320WAT     H1 5346   3.215   0.752   3.929
 1320WAT     H2 5347   3.280   0.658   3.830
 1320WAT    EPW 5348   3.273   0.690   3.910
 1321WAT      O 5349   1.023   1.756   2.229
 1321WAT     H1 5350   1.074   1.809   2.167
 1321WAT     H2 5351   1.075   1.757   2.309
 1321WAT    EPW 5352   1.037   1.763   2.231
 1322WAT      O 5353   2.118   2.758   2.772
 1322WAT     H1 5354   2.064   2.794   2.702
 1322WAT     H2 5355   2.079   2.672   2.791
 1322WAT    EPW 5356   2.106   2.751   2.765
 1323WAT      O 5357   3.533   2.317   2.571
 1323WAT     H1 5358   3.574   2.266   2.641
 1323WAT     H2 5359   3.530   2.406   2.605
 1323WAT    EPW 5360   3.538   2.322   2.584
 1324WAT      O 5361   2.260   3.829   3.518
 1324WAT     H1 5362   2.165   3.827   3.524
 1324WAT     H2 5363   2.286   3.738   3.510
 1324WAT    EPW 5364   2.251   3.817   3.518
 1325WAT      O 5365   0.358   2.946   0.693
 1325WAT     H1 5366   0.360   3.013   0.624
 1325WAT     H2 5367   0.442   2.900   0.685
 1325WAT    EPW 5368   0.370   2.949   0.683
 1326WAT      O 5369   3.126   3.744   0.066
 1326WAT     H1 5370   3.111   3.664   0.117
 1326WAT     H2 5371   3.135   3.812   0.132
 1326WAT    EPW 5372   3.125   3.742   0.082
 1327WAT      O 5373   1.309   3.041   0.294
 1327WAT     H1 5374   1.248   3.107   0.263
 1327WAT     H2 5375   1.276   2.959   0.258
 1327WAT    EPW 5376   1.296   3.039   0.286
 1328WAT      O 5377   3.666   0.346   1.262
 1328WAT     H1 5378   3.706   0.388   1.338
 1328WAT     H2 5379   3.696   0.398   1.187
 1328WAT    EPW 5380   3.675   0.358   1.262
 1329WAT      O 5381   0.815   3.148   0.718
 1329WAT     H1 5382   0.781   3.189   0.796
 1329WAT     H2 5383   0.746   3.158   0.652
 1329WAT    EPW 5384   0.802   3.155   0.719
 1330WAT      O 5385   1.587   3.341   3.828
 1330WAT     H1 5386   1.542   3.367   3.908
 1330WAT     H2 5387   1.554   3.253   3.810
 1330WAT    EPW 5388   1.576   3.333   3.836
 1331WAT      O 5389   0.841   0.884   3.485
 1331WAT     H1 5390   0.771   0.882   3.550
 1331WAT     H2 5391   0.800   0.856   3.404
 1331WAT    EPW 5392   0.826   0.880   3.483
 1332WAT      O 5393   2.798   2.980   3.519
 1332WAT     H1 5394   2.784   3.059   3.467
 1332WAT     H2 5395   2.835   2.918   3.456
 1332WAT    EPW 5396   2.801   2.982   3.504
 1333WAT      O 5397   0.903   2.803   2.947
 1333WAT     H1 5398   0.961   2.870   2.983
 1333WAT     H2 5399   0.947   2.720   2.965
 1333WAT    EPW 5400   0.916   2.801   2.954
 1334WAT      O 5401   2.074   0.784   3.994
 1334WAT     H1 5402   2.117   0.865   3.967
 1334WAT     H2 5403   2.011   0.811   4.060
 1334WAT    EPW 5404   2.071   0.798   3.999
 1335WAT      O 5405   3.259   1.591   2.043
 1335WAT     H1 5406   3.258   1.686   2.043
 1335WAT     H2 5407   3.303   1.568   2.125
 1335WAT    EPW 5408   3.265   1.600   2.054
 1336WAT      O 5409   3.715   2.743   0.927
 1336WAT     H1 5410   3.748   2.714   0.842
 1336WAT     H2 5411   3.687   2.833   0.913
 1336WAT    EPW 5412   3.716   2.751   0.914
 1337WAT      O 5413   2.335   1.274   2.285
 1337WAT     H1 5414   2.271   1.330   2.240
 1337WAT     H2 5415   2.417   1.288   2.237
 1337WAT    EPW 5416   2.337   1.284   2.273
 1338WAT      O 5417   2.163   0.075   2.100
 1338WAT     H1 5418   2.253   0.061   2.129
 1338WAT     H2 5419   2.109   0.038   2.170
 1338WAT    EPW 5420   2.168   0.068   2.113
 1339WAT      O 5421   2.835   0.766   1.517
 1339WAT     H1 5422   2.910   0.773   1.458
 1339WAT     H2 5423   2.866   0.709   1.587
 1339WAT    EPW 5424   2.849   0.759   1.518
 1340WAT      O 5425   2.080   0.787   1.251
 1340WAT     H1 5426   2.148   0.851   1.271
 1340WAT     H2 5427   2.089   0.720   1.318
 1340WAT    EPW 5428   2.090   0.787   1.262
 1341WAT      O 5429   2.759   0.515   2.626
 1341WAT     H1 5430   2.718   0.575   2.564
 1341WAT     H2 5431   2.734   0.549   2.712
 1341WAT    EPW 5432   2.750   0.527   2.630
 1342WAT      O 5433   3.254   3.653   0.690
 1342WAT     H1 5434   3.252   3.589   0.761
 1342WAT     H2 5435   3.341   3.693   0.696
 1342WAT    EPW 5436   3.265   3.650   0.700
 1343WAT      O 5437   2.687   3.909   1.725
 1343WAT     H1 5438   2.629   3.945   1.792
 1343WAT     H2 5439   2.637   3.837   1.687
 1343WAT    EPW 5440   2.672   3.905   1.729
 1344WAT      O 5441   0.109   0.762   3.942
 1344WAT     H1 5442   0.170   0.698   3.977
 1344WAT     H2 5443   0.036   0.710   3.908
 1344WAT    EPW 5444   0.107   0.747   3.942
 1345WAT      O 5445   0.816   1.849   1.314
 1345WAT     H1 5446   0.858   1.891   1.390
 1345WAT     H2 5447   0.795   1.922   1.256
 1345WAT    EPW 5448   0.819   1.865   1.317
 1346WAT      O 5449   1.947   2.063   1.741
 1346WAT     H1 5450   1.902   2.131   1.691
 1346WAT     H2 5451   1.910   1.981   1.709
 1346WAT    EPW 5452   1.936   2.062   1.730
 1347WAT      O 5453   1.254   0.400   1.569
 1347WAT     H1 5454   1.316   0.460   1.526
 1347WAT     H2 5455   1.291   0.386   1.656
 1347WAT    EPW 5456   1.267   0.406   1.575
 1348WAT      O 5457   2.227   0.996   1.650
 1348WAT     H1 5458   2.300   0.944   1.615
 1348WAT     H2 5459   2.219   1.069   1.590
 1348WAT    EPW 5460   2.236   0.999   1.638
 1349WAT      O 5461   1.636   4.024   3.081
 1349WAT     H1 5462   1.617   4.100   3.135
 1349WAT     H2 5463   1.730   4.010   3.092
 1349WAT    EPW 5464   1.646   4.032   3.090
 1350WAT      O 5465   2.376   1.161   0.880
 1350WAT     H1 5466   2.287   1.193   0.897
 1350WAT     H2 5467   2.426   1.239   0.859
 1350WAT    EPW 5468   2.371   1.175   0.880
 1351WAT      O 5469   3.705   0.294   3.025
 1351WAT     H1 5470   3.691   0.281   3.119
 1351WAT     H2 5471   3.624   0.261   2.985
 1351WAT    EPW 5472   3.692   0.288   3.032
 1352WAT      O 5473   1.142   3.516   2.760
 1352WAT     H1 5474   1.164   3.432   2.721
 1352WAT     H2 5475   1.139   3.577   2.686
 1352WAT    EPW 5476   1.144   3.513   2.745
 1353WAT      O 5477   2.428   3.279   1.931
 1353WAT     H1 5478   2.434   3.186   1.911
 1353WAT     H2 5479   2.367   3.283   2.005
 1353WAT    EPW 5480   2.420   3.267   1.938
 1354WAT      O 5481   2.038   4.008   3.435
 1354WAT     H1 5482   1.966   3.971   3.384
 1354WAT     H2 5483   2.070   4.081   3.382
 1354WAT    EPW 5484   2.033   4.012   3.421
 1355WAT      O 5485   2.551   2.904   4.019
 1355WAT     H1 5486   2.602   2.970   3.972
 1355WAT     H2 5487   2.496   2.863   3.951
 1355WAT    EPW 5488   2.550   2.907   4.004
 1356WAT      O 5489   0.279   3.286   4.034
 1356WAT     H1 5490   0.320   3.325   3.958
 1356WAT     H2 5491   0.213   3.227   3.999
 1356WAT    EPW 5492   0.276   3.284   4.020
 1357WAT      O 5493   3.617   3.435   2.146
 1357WAT     H1 5494   3.542   3.456   2.090
 1357WAT     H2 5495   3.578   3.399   2.225
 1357WAT    EPW 5496   3.602   3.433   2.149
 1358WAT      O 5497   0.341   1.420   2.292
 1358WAT     H1 5498   0.329   1.471   2.372
 1358WAT     H2 5499   0.434   1.430   2.271
 1358WAT    EPW 5500   0.352   1.428   2.300
 1359WAT      O 5501   0.347   0.089   0.889
 1359WAT     H1 5502   0.287   0.026   0.851
 1359WAT     H2 5503   0.291   0.161   0.919
 1359WAT    EPW 5504   0.332   0.090   0.888
 1360WAT      O 5505   1.307   3.677   0.652
 1360WAT     H1 5506   1.398   3.647   0.651
 1360WAT     H2 5507   1.281   3.681   0.560
 1360WAT    EPW 5508   1.316   3.674   0.640
 1361WAT      O 5509   3.085   3.102   0.317
 1361WAT     H1 5510   3.141   3.160   0.266
 1361WAT     H2 5511   3.146   3.044   0.363
 1361WAT    EPW 5512   3.100   3.102   0.317
 1362WAT      O 5513   1.992   0.902   3.433
 1362WAT     H1 5514   1.946   0.850   3.367
 1362WAT     H2 5515   2.044   0.839   3.482
 1362WAT    EPW 5516   1.993   0.887   3.430
 1363WAT      O 5517   2.997   1.032   2.247
 1363WAT     H1 5518   2.948   0.982   2.181
 1363WAT     H2 5519   3.079   0.983   2.258
 1363WAT    EPW 5520   3.001   1.019   2.239
 1364WAT      O 5521   0.863   3.239   2.601
 1364WAT     H1 5522   0.941   3.215   2.651
 1364WAT     H2 5523   0.886   3.323   2.560
 1364WAT    EPW 5524   0.876   3.247   2.602
 1365WAT      O 5525   3.276   3.785   3.507
 1365WAT     H1 5526   3.313   3.800   3.420
 1365WAT     H2 5527   3.348   3.748   3.558
 1365WAT    EPW 5528   3.290   3.782   3.502
 1366WAT      O 5529   1.743   1.958   0.950
 1366WAT     H1 5530   1.723   1.866   0.931
 1366WAT     H2 5531   1.838   1.960   0.962
 1366WAT    EPW 5532   1.752   1.946   0.949
 1367WAT      O 5533   1.739   0.212   3.500
 1367WAT     H1 5534   1.833   0.194   3.497
 1367WAT     H2 5535   1.727   0.264   3.579
 1367WAT    EPW 5536   1.750   0.216   3.510
 1368WAT      O 5537   2.384   1.355   3.117
 1368WAT     H1 5538   2.478   1.373   3.110
 1368WAT     H2 5539   2.343   1.410   3.051
 1368WAT    EPW 5540   2.391   1.365   3.108
 1369WAT      O 5541   3.299   2.501   3.380
 1369WAT     H1 5542   3.224   2.469   3.330
 1369WAT     H2 5543   3.278   2.481   3.471
 1369WAT    EPW 5544   3.286   2.494   3.385
 1370WAT      O 5545   2.249   0.406   3.207
 1370WAT     H1 5546   2.288   0.337   3.261
 1370WAT     H2 5547   2.323   0.443   3.159
 1370WAT    EPW 5548   2.264   0.401   3.207
 1371WAT      O 5549   1.587   0.287   2.036
 1371WAT     H1 5550   1.583   0.296   1.941
 1371WAT     H2 5551   1.623   0.199   2.051
 1371WAT    EPW 5552   1.591   0.276   2.026
 1372WAT      O 5553   0.268   2.049   0.284
 1372WAT     H1 5554   0.293   2.131   0.242
 1372WAT     H2 5555   0.317   2.049   0.366
 1372WAT    EPW 5556   0.278   2.060   0.290
 1373WAT      O 5557   1.993   3.625   3.748
 1373WAT     H1 5558   1.979   3.717   3.728
 1373WAT     H2 5559   1.927   3.579   3.695
 1373WAT    EPW 5560   1.982   3.631   3.739
 1374WAT      O 5561   1.116   2.575   2.998
 1374WAT     H1 5562   1.124   2.479   3.001
 1374WAT     H2 5563   1.176   2.602   2.929
 1374WAT    EPW 5564   1.125   2.566   2.990
 1375WAT      O 5565   0.352   1.518   3.899
 1375WAT     H1 5566   0.266   1.542   3.867
 1375WAT     H2 5567   0.411   1.581   3.857
 1375WAT    EPW 5568   0.349   1.530   3.889
 1376WAT      O 5569   0.884   3.173   1.917
 1376WAT     H1 5570   0.840   3.207   1.995
 1376WAT     H2 5571   0.949   3.240   1.896
 1376WAT    EPW 5572   0.887   3.187   1.925
 1377WAT      O 5573   3.016   2.014   1.534
 1377WAT     H1 5574   3.044   2.037   1.623
 1377WAT     H2 5575   2.991   2.097   1.495
 1377WAT    EPW 5576   3.017   2.028   1.541
 1378WAT      O 5577   1.234   3.811   1.155
 1378WAT     H1 5578   1.198   3.867   1.224
 1378WAT     H2 5579   1.316   3.853   1.131
 1378WAT    EPW 5580   1.240   3.824   1.161
 1379WAT      O 5581   2.093   3.627   1.732
 1379WAT     H1 5582   2.012   3.677   1.739
 1379WAT     H2 5583   2.065   3.536   1.732
 1379WAT    EPW 5584   2.079   3.622   1.733
 1380WAT      O 5585   1.802   1.102   2.424
 1380WAT     H1 5586   1.802   1.107   2.328
 1380WAT     H2 5587   1.815   1.010   2.443
 1380WAT    EPW 5588   1.804   1.091   2.414
 1381WAT      O 5589   1.883   1.246   0.368
 1381WAT     H1 5590   1.977   1.253   0.383
 1381WAT     H2 5591   1.849   1.334   0.388
 1381WAT    EPW 5592   1.891   1.259   0.372
 1382WAT      O 5593   3.261   1.861   1.122
 1382WAT     H1 5594   3.297   1.911   1.195
 1382WAT     H2 5595   3.200   1.800   1.163
 1382WAT    EPW 5596   3.257   1.859   1.137
 1383WAT      O 5597   1.929   0.106   3.883
 1383WAT     H1 5598   1.896   0.178   3.828
 1383WAT     H2 5599   2.024   0.107   3.868
 1383WAT    EPW 5600   1.937   0.116   3.874
 1384WAT      O 5601   1.014   2.163   1.351
 1384WAT     H1 5602   1.105   2.162   1.322
 1384WAT     H2 5603   0.963   2.174   1.271
 1384WAT    EPW 5604   1.020   2.164   1.337
 1385WAT      O 5605   1.982   2.416   3.444
 1385WAT     H1 5606   2.063   2.367   3.454
 1385WAT     H2 5607   1.998   2.499   3.490
 1385WAT    EPW 5608   1.995   2.421   3.452
 1386WAT      O 5609   2.400   1.873   1.298
 1386WAT     H1 5610   2.316   1.840   1.267
 1386WAT     H2 5611   2.416   1.827   1.381
 1386WAT    EPW 5612   2.391   1.863   1.305
 1387WAT      O 5613   1.749   1.293   3.492
 1387WAT     H1 5614   1.754   1.369   3.549
 1387WAT     H2 5615   1.816   1.308   3.426
 1387WAT    EPW 5616   1.758   1.305   3.491
 1388WAT      O 5617   1.265   0.134   1.436
 1388WAT     H1 5618   1.214   0.079   1.377
 1388WAT     H2 5619   1.218   0.218   1.438
 1388WAT    EPW 5620   1.252   0.138   1.429
 1389WAT      O 5621   3.184   1.524   2.773
 1389WAT     H1 5622   3.180   1.572   2.690
 1389WAT     H2 5623   3.173   1.592   2.839
 1389WAT    EPW 5624   3.182   1.539   2.771
 1390WAT      O 5625   0.901   2.886   1.852
 1390WAT     H1 5626   0.883   2.847   1.937
 1390WAT     H2 5627   0.914   2.979   1.870
 1390WAT    EPW 5628   0.901   2.893   1.866
 1391WAT      O 5629   2.485   3.955   2.194
 1391WAT     H1 5630   2.552   3.889   2.211
 1391WAT     H2 5631   2.403   3.915   2.225
 1391WAT    EPW 5632   2.483   3.941   2.200
 1392WAT      O 5633   0.160   4.010   2.396
 1392WAT     H1 5634   0.180   3.937   2.336
 1392WAT     H2 5635   0.100   3.972   2.460
 1392WAT    EPW 5636   0.155   3.995   2.396
 1393WAT      O 5637   1.322   3.359   4.020
 1393WAT     H1 5638   1.377   3.427   4.057
 1393WAT     H2 5639   1.281   3.400   3.944
 1393WAT    EPW 5640   1.324   3.373   4.015
 1394WAT      O 5641   3.552   0.140   2.565
 1394WAT     H1 5642   3.520   0.120   2.653
 1394WAT     H2 5643   3.534   0.061   2.514
 1394WAT    EPW 5644   3.545   0.127   2.569
 1395WAT      O 5645   1.014   2.936   2.611
 1395WAT     H1 5646   0.924   2.932   2.581
 1395WAT     H2 5647   1.065   2.954   2.532
 1395WAT    EPW 5648   1.009   2.937   2.597
 1396WAT      O 5649   1.056   2.698   3.977
 1396WAT     H1 5650   0.991   2.730   3.914
 1396WAT     H2 5651   1.139   2.703   3.930
 1396WAT    EPW 5652   1.059   2.703   3.963
 1397WAT      O 5653   3.104   0.658   2.882
 1397WAT     H1 5654   3.119   0.736   2.935
 1397WAT     H2 5655   3.066   0.594   2.943
 1397WAT    EPW 5656   3.101   0.660   2.897
 1398WAT      O 5657   1.112   0.420   2.298
 1398WAT     H1 5658   1.093   0.507   2.263
 1398WAT     H2 5659   1.143   0.437   2.387
 1398WAT    EPW 5660   1.114   0.434   2.306
 1399WAT      O 5661   1.860   0.241   1.044
 1399WAT     H1 5662   1.918   0.178   1.002
 1399WAT     H2 5663   1.872   0.322   0.995
 1399WAT    EPW 5664   1.869   0.243   1.032
 1400WAT      O 5665   3.414   2.364   2.847
 1400WAT     H1 5666   3.495   2.413   2.832
 1400WAT     H2 5667   3.426   2.282   2.799
 1400WAT    EPW 5668   3.426   2.360   2.839
 1401WAT      O 5669   0.450   3.526   2.688
 1401WAT     H1 5670   0.389   3.529   2.614
 1401WAT     H2 5671   0.405   3.570   2.759
 1401WAT    EPW 5672   0.436   3.532   2.688
 1402WAT      O 5673   3.742   3.556   3.710
 1402WAT     H1 5674   3.759   3.599   3.793
 1402WAT     H2 5675   3.694   3.476   3.734
 1402WAT    EPW 5676   3.738   3.551   3.724
 1403WAT      O 5677   1.800   0.942   0.716
 1403WAT     H1 5678   1.740   0.974   0.784
 1403WAT     H2 5679   1.887   0.959   0.752
 1403WAT    EPW 5680   1.804   0.949   0.730
 1404WAT      O 5681   1.422   1.978   2.568
 1404WAT     H1 5682   1.440   1.952   2.477
 1404WAT     H2 5683   1.491   2.041   2.589
 1404WAT    EPW 5684   1.434   1.983   2.558
 1405WAT      O 5685   1.695   2.182   0.438
 1405WAT     H1 5686   1.753   2.231   0.380
 1405WAT     H2 5687   1.675   2.102   0.390
 1405WAT    EPW 5688   1.700   2.178   0.424
 1406WAT      O 5689   0.575   0.885   1.959
 1406WAT     H1 5690   0.669   0.880   1.940
 1406WAT     H2 5691   0.559   0.977   1.978
 1406WAT    EPW 5692   0.586   0.896   1.959
 1407WAT      O 5693   0.726   3.932   1.207
 1407WAT     H1 5694   0.738   3.902   1.297
 1407WAT     H2 5695   0.664   4.004   1.213
 1407WAT    EPW 5696   0.720   3.937   1.220
 1408WAT      O 5697   0.694   1.744   2.318
 1408WAT     H1 5698   0.744   1.728   2.398
 1408WAT     H2 5699   0.756   1.788   2.260
 1408WAT    EPW 5700   0.709   1.748   2.321
 1409WAT      O 5701   0.791   3.616   0.842
 1409WAT     H1 5702   0.772   3.603   0.749
 1409WAT     H2 5703   0.772   3.531   0.883
 1409WAT    EPW 5704   0.786   3.603   0.835
 1410WAT      O 5705   0.831   0.709   0.157
 1410WAT     H1 5706   0.865   0.653   0.227
 1410WAT     H2 5707   0.909   0.753   0.122
 1410WAT    EPW 5708   0.846   0.708   0.162
 1411WAT      O 5709   1.446   1.767   3.523
 1411WAT     H1 5710   1.375   1.827   3.501
 1411WAT     H2 5711   1.505   1.771   3.448
 1411WAT    EPW 5712   1.445   1.775   3.511
 1412WAT      O 5713   1.758   0.268   0.315
 1412WAT     H1 5714   1.732   0.223   0.395
 1412WAT     H2 5715   1.742   0.204   0.246
 1412WAT    EPW 5716   1.752   0.254   0.316
 1413WAT      O 5717   3.596   3.780   0.315
 1413WAT     H1 5718   3.568   3.867   0.287
 1413WAT     H2 5719   3.667   3.796   0.378
 1413WAT    EPW 5720   3.601   3.793   0.320
 1414WAT      O 5721   3.554   3.258   3.129
 1414WAT     H1 5722   3.592   3.345   3.123
 1414WAT     H2 5723   3.629   3.200   3.141
 1414WAT    EPW 5724   3.569   3.262   3.130
 1415WAT      O 5725   1.460   2.120   2.877
 1415WAT     H1 5726   1.552   2.128   2.853
 1415WAT     H2 5727   1.461   2.092   2.969
 1415WAT    EPW 5728   1.472   2.118   2.886
 1416WAT      O 5729   0.811   0.173   2.639
 1416WAT     H1 5730   0.837   0.260   2.671
 1416WAT     H2 5731   0.890   0.120   2.648
 1416WAT    EPW 5732   0.825   0.178   2.645
 1417WAT      O 5733   2.904   1.317   1.348
 1417WAT     H1 5734   2.909   1.228   1.383
 1417WAT     H2 5735   2.847   1.310   1.272
 1417WAT    EPW 5736   2.897   1.305   1.343
 1418WAT      O 5737   3.586   2.732   0.372
 1418WAT     H1 5738   3.554   2.669   0.306
 1418WAT     H2 5739   3.659   2.776   0.329
 1418WAT    EPW 5740   3.591   2.729   0.357
 1419WAT      O 5741   2.678   3.122   2.184
 1419WAT     H1 5742   2.643   3.035   2.162
 1419WAT     H2 5743   2.600   3.175   2.198
 1419WAT    EPW 5744   2.663   3.117   2.183
 1420WAT      O 5745   2.265   2.122   0.044
 1420WAT     H1 5746   2.216   2.039   0.043
 1420WAT     H2 5747   2.356   2.095   0.039
 1420WAT    EPW 5748   2.270   2.107   0.043
 1421WAT      O 5749   2.077   3.043   4.086
 1421WAT     H1 5750   2.137   2.979   4.049
 1421WAT     H2 5751   1.999   3.038   4.031
 1421WAT    EPW 5752   2.075   3.034   4.074
 1422WAT      O 5753   3.159   3.213   1.213
 1422WAT     H1 5754   3.087   3.177   1.264
 1422WAT     H2 5755   3.226   3.235   1.277
 1422WAT    EPW 5756   3.158   3.211   1.228
 1423WAT      O 5757   2.063   0.931   0.843
 1423WAT     H1 5758   2.130   0.922   0.775
 1423WAT     H2 5759   2.054   0.843   0.879
 1423WAT    EPW 5760   2.071   0.918   0.838
 1424WAT      O 5761   0.486   1.713   1.650
 1424WAT     H1 5762   0.569   1.746   1.616
 1424WAT     H2 5763   0.496   1.618   1.648
 1424WAT    EPW 5764   0.498   1.705   1.645
 1425WAT      O 5765   1.795   3.150   2.949
 1425WAT     H1 5766   1.735   3.083   2.916
 1425WAT     H2 5767   1.750   3.233   2.931
 1425WAT    EPW 5768   1.781   3.152   2.942
 1426WAT      O 5769   0.540   2.227   3.224
 1426WAT     H1 5770   0.448   2.250   3.242
 1426WAT     H2 5771   0.543   2.132   3.237
 1426WAT    EPW 5772   0.528   2.217   3.228
 1427WAT      O 5773   1.128   3.324   3.101
 1427WAT     H1 5774   1.040   3.286   3.095
 1427WAT     H2 5775   1.140   3.342   3.194
 1427WAT    EPW 5776   1.118   3.321   3.112
 1428WAT      O 5777   2.999   0.474   3.724
 1428WAT     H1 5778   2.943   0.512   3.791
 1428WAT     H2 5779   3.066   0.426   3.772
 1428WAT    EPW 5780   3.001   0.473   3.739
 1429WAT      O 5781   0.680   0.065   2.076
 1429WAT     H1 5782   0.636   0.143   2.110
 1429WAT     H2 5783   0.644  -0.008   2.128
 1429WAT    EPW 5784   0.670   0.065   2.087
 1430WAT      O 5785   1.570   3.951   2.397
 1430WAT     H1 5786   1.476   3.964   2.393
 1430WAT     H2 5787   1.591   3.902   2.318
 1430WAT    EPW 5788   1.560   3.947   2.386
 1431WAT      O 5789   1.561   3.760   1.007
 1431WAT     H1 5790   1.620   3.752   1.082
 1431WAT     H2 5791   1.605   3.714   0.936
 1431WAT    EPW 5792   1.574   3.753   1.008
 1432WAT      O 5793   2.258   2.165   3.871
 1432WAT     H1 5794   2.262   2.167   3.966
 1432WAT     H2 5795   2.260   2.257   3.845
 1432WAT    EPW 5796   2.259   2.178   3.880
 1433WAT      O 5797   0.353   3.199   1.962
 1433WAT     H1 5798   0.300   3.205   1.882
 1433WAT     H2 5799   0.423   3.264   1.949
 1433WAT    EPW 5800   0.355   3.209   1.950
 1434WAT      O 5801   1.378   3.356   3.465
 1434WAT     H1 5802   1.423   3.323   3.388
 1434WAT     H2 5803   1.377   3.283   3.526
 1434WAT    EPW 5804   1.384   3.342   3.463
 1435WAT      O 5805   0.311   0.677   1.347
 1435WAT     H1 5806   0.339   0.761   1.310
 1435WAT     H2 5807   0.270   0.700   1.430
 1435WAT    EPW 5808   0.309   0.691   1.353
 1436WAT      O 5809   0.167   1.582   1.263
 1436WAT     H1 5810   0.116   1.542   1.334
 1436WAT     H2 5811   0.252   1.540   1.269
 1436WAT    EPW 5812   0.171   1.571   1.273
 1437WAT      O 5813   1.142   0.815   3.527
 1437WAT     H1 5814   1.048   0.831   3.512
 1437WAT     H2 5815   1.176   0.899   3.556
 1437WAT    EPW 5816   1.134   0.828   3.529
 1438WAT      O 5817   2.782   2.644   3.341
 1438WAT     H1 5818   2.852   2.644   3.406
 1438WAT     H2 5819   2.790   2.729   3.298
 1438WAT    EPW 5820   2.792   2.655   3.344
 1439WAT      O 5821   0.423   2.817   1.295
 1439WAT     H1 5822   0.452   2.870   1.221
 1439WAT     H2 5823   0.504   2.794   1.341
 1439WAT    EPW 5824   0.437   2.821   1.291
 1440WAT      O 5825   3.305   0.737   0.680
 1440WAT     H1 5826   3.253   0.789   0.617
 1440WAT     H2 5827   3.380   0.706   0.629
 1440WAT    EPW 5828   3.308   0.740   0.665
 1441WAT      O 5829   3.582   3.225   1.781
 1441WAT     H1 5830   3.659   3.281   1.782
 1441WAT     H2 5831   3.607   3.151   1.726
 1441WAT    EPW 5832   3.596   3.223   1.774
 1442WAT      O 5833   1.224   3.593   3.213
 1442WAT     H1 5834   1.227   3.543   3.131
 1442WAT     H2 5835   1.179   3.535   3.274
 1442WAT    EPW 5836   1.219   3.579   3.210
 1443WAT      O 5837   1.243   4.084   2.686
 1443WAT     H1 5838   1.334   4.074   2.716
 1443WAT     H2 5839   1.196   4.014   2.731
 1443WAT    EPW 5840   1.249   4.073   2.696
 1444WAT      O 5841   1.535   1.316   3.820
 1444WAT     H1 5842   1.524   1.354   3.733
 1444WAT     H2 5843   1.563   1.225   3.804
 1444WAT    EPW 5844   1.537   1.309   3.807
 1445WAT      O 5845   2.155   1.727   3.376
 1445WAT     H1 5846   2.065   1.730   3.342
 1445WAT     H2 5847   2.196   1.807   3.343
 1445WAT    EPW 5848   2.148   1.738   3.367
 1446WAT      O 5849   1.401   1.299   3.025
 1446WAT     H1 5850   1.410   1.221   3.081
 1446WAT     H2 5851   1.487   1.309   2.985
 1446WAT    EPW 5852   1.414   1.290   3.027
 1447WAT      O 5853   1.236   1.001   1.223
 1447WAT     H1 5854   1.252   1.048   1.141
 1447WAT     H2 5855   1.194   0.919   1.195
 1447WAT    EPW 5856   1.233   0.996   1.209
 1448WAT      O 5857   3.455   1.656   1.297
 1448WAT     H1 5858   3.422   1.738   1.261
 1448WAT     H2 5859   3.534   1.638   1.247
 1448WAT    EPW 5860   3.461   1.664   1.286
 1449WAT      O 5861   1.592   2.635   1.496
 1449WAT     H1 5862   1.523   2.689   1.457
 1449WAT     H2 5863   1.554   2.547   1.500
 1449WAT    EPW 5864   1.578   2.630   1.491
 1450WAT      O 5865   3.643   1.247   0.925
 1450WAT     H1 5866   3.626   1.184   0.855
 1450WAT     H2 5867   3.610   1.205   1.004
 1450WAT    EPW 5868   3.636   1.233   0.926
 1451WAT      O 5869   2.118   3.666   0.944
 1451WAT     H1 5870   2.097   3.601   1.011
 1451WAT     H2 5871   2.191   3.716   0.982
 1451WAT    EPW 5872   2.125   3.664   0.958
 1452WAT      O 5873   1.482   3.998   1.651
 1452WAT     H1 5874   1.495   3.906   1.673
 1452WAT     H2 5875   1.391   4.003   1.622
 1452WAT    EPW 5876   1.472   3.987   1.650
 1453WAT      O 5877   2.802   3.263   0.883
 1453WAT     H1 5878   2.831   3.205   0.812
 1453WAT     H2 5879   2.763   3.338   0.837
 1453WAT    EPW 5880   2.801   3.265   0.867
 1454WAT      O 5881   0.994   1.491   0.059
 1454WAT     H1 5882   1.032   1.503   0.146
 1454WAT     H2 5883   1.005   1.397   0.040
 1454WAT    EPW 5884   1.000   1.480   0.068
 1455WAT      O 5885   1.877   0.924   2.954
 1455WAT     H1 5886   1.860   0.846   2.900
 1455WAT     H2 5887   1.790   0.958   2.974
 1455WAT    EPW 5888   1.863   0.918   2.949
 1456WAT      O 5889   3.192   2.058   3.187
 1456WAT     H1 5890   3.245   2.137   3.180
 1456WAT     H2 5891   3.154   2.046   3.100
 1456WAT    EPW 5892   3.194   2.067   3.175
 1457WAT      O 5893   2.989   0.015   0.128
 1457WAT     H1 5894   3.072   0.014   0.080
 1457WAT     H2 5895   2.982  -0.072   0.167
 1457WAT    EPW 5896   2.999   0.004   0.127
 1458WAT      O 5897   2.062   1.557   1.969
 1458WAT     H1 5898   2.109   1.493   1.916
 1458WAT     H2 5899   2.076   1.640   1.925
 1458WAT    EPW 5900   2.070   1.559   1.956
 1459WAT      O 5901   1.310   3.673   1.558
 1459WAT     H1 5902   1.258   3.668   1.639
 1459WAT     H2 5903   1.322   3.581   1.532
 1459WAT    EPW 5904   1.305   3.660   1.565
 1460WAT      O 5905   0.944   0.405   2.728
 1460WAT     H1 5906   0.948   0.427   2.821
 1460WAT     H2 5907   0.929   0.489   2.684
 1460WAT    EPW 5908   0.943   0.419   2.734
 1461WAT      O 5909   1.465   2.205   4.016
 1461WAT     H1 5910   1.480   2.176   4.106
 1461WAT     H2 5911   1.502   2.293   4.012
 1461WAT    EPW 5912   1.472   2.212   4.027
 1462WAT      O 5913   3.393   2.285   0.834
 1462WAT     H1 5914   3.309   2.261   0.794
 1462WAT     H2 5915   3.457   2.230   0.789
 1462WAT    EPW 5916   3.390   2.275   0.822
 1463WAT      O 5917   3.648   0.800   3.376
 1463WAT     H1 5918   3.709   0.729   3.357
 1463WAT     H2 5919   3.651   0.856   3.299
 1463WAT    EPW 5920   3.656   0.798   3.364
 1464WAT      O 5921   0.920   3.656   3.107
 1464WAT     H1 5922   1.002   3.608   3.123
 1464WAT     H2 5923   0.907   3.649   3.013
 1464WAT    EPW 5924   0.929   3.648   3.097
 1465WAT      O 5925   3.480   2.554   1.948
 1465WAT     H1 5926   3.503   2.646   1.935
 1465WAT     H2 5927   3.426   2.554   2.027
 1465WAT    EPW 5928   3.476   2.566   1.956
 1466WAT      O 5929   2.167   0.180   2.572
 1466WAT     H1 5930   2.241   0.240   2.575
 1466WAT     H2 5931   2.206   0.093   2.575
 1466WAT    EPW 5932   2.182   0.177   2.573
 1467WAT      O 5933   1.857   0.113   0.061
 1467WAT     H1 5934   1.885   0.115  -0.030
 1467WAT     H2 5935   1.897   0.033   0.097
 1467WAT    EPW 5936   1.866   0.103   0.054
 1468WAT      O 5937   1.904   1.360   3.269
 1468WAT     H1 5938   1.858   1.441   3.248
 1468WAT     H2 5939   1.973   1.354   3.204
 1468WAT    EPW 5940   1.907   1.370   3.258
 1469WAT      O 5941   3.725   2.770   3.924
 1469WAT     H1 5942   3.649   2.746   3.872
 1469WAT     H2 5943   3.764   2.844   3.877
 1469WAT    EPW 5944   3.720   2.777   3.911
 1470WAT      O 5945   3.586   0.843   1.987
 1470WAT     H1 5946   3.615   0.927   1.953
 1470WAT     H2 5947   3.568   0.790   1.910
 1470WAT    EPW 5948   3.587   0.847   1.973
 1471WAT      O 5949   0.073   2.678   1.343
 1471WAT     H1 5950  -0.021   2.689   1.328
 1471WAT     H2 5951   0.107   2.644   1.260
 1471WAT    EPW 5952   0.065   2.675   1.330
 1472WAT      O 5953   3.481   3.994   0.562
 1472WAT     H1 5954   3.528   3.924   0.607
 1472WAT     H2 5955   3.416   4.023   0.626
 1472WAT    EPW 5956   3.479   3.989   0.577
 1473WAT      O 5957   0.175   0.661   2.046
 1473WAT     H1 5958   0.154   0.734   1.989
 1473WAT     H2 5959   0.268   0.671   2.066
 1473WAT    EPW 5960   0.184   0.672   2.041
 1474WAT      O 5961   1.822   3.689   0.228
 1474WAT     H1 5962   1.733   3.706   0.261
 1474WAT     H2 5963   1.875   3.681   0.307
 1474WAT    EPW 5964   1.817   3.691   0.243
 1475WAT      O 5965   2.330   1.225   3.445
 1475WAT     H1 5966   2.242   1.188   3.457
 1475WAT     H2 5967   2.363   1.183   3.366
 1475WAT    EPW 5968   2.323   1.215   3.436
 1476WAT      O 5969   2.290   0.011   0.461
 1476WAT     H1 5970   2.277  -0.020   0.551
 1476WAT     H2 5971   2.276   0.105   0.465
 1476WAT    EPW 5972   2.286   0.019   0.473
 1477WAT      O 5973   0.179   3.069   2.401
 1477WAT     H1 5974   0.256   3.088   2.348
 1477WAT     H2 5975   0.142   2.989   2.362
 1477WAT    EPW 5976   0.184   3.061   2.389
 1478WAT      O 5977   3.700   3.125   1.157
 1478WAT     H1 5978   3.608   3.099   1.165
 1478WAT     H2 5979   3.749   3.053   1.195
 1478WAT    EPW 5980   3.694   3.112   1.163
 1479WAT      O 5981   0.866   3.990   0.616
 1479WAT     H1 5982   0.901   3.984   0.705
 1479WAT     H2 5983   0.811   4.068   0.617
 1479WAT    EPW 5984   0.864   4.000   0.628
 1480WAT      O 5985   2.189   1.971   2.113
 1480WAT     H1 5986   2.215   2.032   2.182
 1480WAT     H2 5987   2.096   1.989   2.099
 1480WAT    EPW 5988   2.180   1.981   2.120
 1481WAT      O 5989   3.452   0.566   3.008
 1481WAT     H1 5990   3.545   0.544   2.996
 1481WAT     H2 5991   3.452   0.656   3.038
 1481WAT    EPW 5992   3.464   0.575   3.011
 1482WAT      O 5993   0.507   3.474   3.477
 1482WAT     H1 5994   0.427   3.527   3.472
 1482WAT     H2 5995   0.567   3.525   3.531
 1482WAT    EPW 5996   0.504   3.487   3.483
 1483WAT      O 5997   0.035   3.633   0.895
 1483WAT     H1 5998   0.108   3.597   0.845
 1483WAT     H2 5999   0.063   3.629   0.986
 1483WAT    EPW 6000   0.048   3.628   0.900
 1484WAT      O 6001   3.117   1.967   0.581
 1484WAT     H1 6002   3.149   1.978   0.670
 1484WAT     H2 6003   3.068   2.047   0.563
 1484WAT    EPW 6004   3.115   1.979   0.590
 1485WAT      O 6005   3.194   1.021   0.128
 1485WAT     H1 6006   3.187   1.077   0.051
 1485WAT     H2 6007   3.273   0.969   0.112
 1485WAT    EPW 6008   3.204   1.022   0.116
 1486WAT      O 6009   2.663   1.504   0.032
 1486WAT     H1 6010   2.700   1.417   0.048
 1486WAT     H2 6011   2.723   1.564   0.078
 1486WAT    EPW 6012   2.676   1.501   0.040
 1487WAT      O 6013   0.276   2.255   3.779
 1487WAT     H1 6014   0.286   2.201   3.856
 1487WAT     H2 6015   0.365   2.261   3.742
 1487WAT    EPW 6016   0.289   2.249   3.784
 1488WAT      O 6017   0.587   1.497   2.201
 1488WAT     H1 6018   0.609   1.581   2.241
 1488WAT     H2 6019   0.671   1.453   2.190
 1488WAT    EPW 6020   0.601   1.502   2.205
 1489WAT      O 6021   2.141   3.409   3.406
 1489WAT     H1 6022   2.099   3.477   3.458
 1489WAT     H2 6023   2.114   3.427   3.315
 1489WAT    EPW 6024   2.132   3.420   3.401
 1490WAT      O 6025   1.083   1.362   3.383
 1490WAT     H1 6026   1.120   1.275   3.372
 1490WAT     H2 6027   1.092   1.381   3.477
 1490WAT    EPW 6028   1.089   1.353   3.394
 1491WAT      O 6029   0.646   1.919   3.343
 1491WAT     H1 6030   0.572   1.859   3.353
 1491WAT     H2 6031   0.674   1.939   3.432
 1491WAT    EPW 6032   0.640   1.913   3.356
 1492WAT      O 6033   0.311   1.609   2.787
 1492WAT     H1 6034   0.268   1.525   2.803
 1492WAT     H2 6035   0.405   1.590   2.793
 1492WAT    EPW 6036   0.318   1.596   2.790
 1493WAT      O 6037   3.621   1.966   1.190
 1493WAT     H1 6038   3.670   2.036   1.146
 1493WAT     H2 6039   3.688   1.901   1.213
 1493WAT    EPW 6040   3.636   1.967   1.187
 1494WAT      O 6041   1.018   0.558   0.864
 1494WAT     H1 6042   1.009   0.612   0.943
 1494WAT     H2 6043   0.935   0.567   0.819
 1494WAT    EPW 6044   1.006   0.566   0.869
 1495WAT      O 6045   0.656   1.250   0.088
 1495WAT     H1 6046   0.628   1.269  -0.002
 1495WAT     H2 6047   0.712   1.323   0.111
 1495WAT    EPW 6048   0.660   1.262   0.079
 1496WAT      O 6049   0.167   1.402   2.891
 1496WAT     H1 6050   0.177   1.310   2.916
 1496WAT     H2 6051   0.087   1.403   2.837
 1496WAT    EPW 6052   0.158   1.390   2.887
 1497WAT      O 6053   1.417   2.185   0.304
 1497WAT     H1 6054   1.447   2.095   0.310
 1497WAT     H2 6055   1.394   2.210   0.393
 1497WAT    EPW 6056   1.418   2.176   0.316
 1498WAT      O 6057   2.898   0.908   2.751
 1498WAT     H1 6058   2.954   0.844   2.795
 1498WAT     H2 6059   2.946   0.991   2.759
 1498WAT    EPW 6060   2.912   0.911   2.758
 1499WAT      O 6061   3.141   1.523   0.522
 1499WAT     H1 6062   3.114   1.506   0.612
 1499WAT     H2 6063   3.203   1.452   0.501
 1499WAT    EPW 6064   3.146   1.511   0.531
 1500WAT      O 6065   0.840   3.376   0.064
 1500WAT     H1 6066   0.769   3.441   0.062
 1500WAT     H2 6067   0.919   3.427   0.082
 1500WAT    EPW 6068   0.841   3.392   0.066
 1501WAT      O 6069   0.394   3.394   0.522
 1501WAT     H1 6070   0.443   3.311   0.528
 1501WAT     H2 6071   0.357   3.393   0.434
 1501WAT    EPW 6072   0.396   3.383   0.511
 1502WAT      O 6073   2.681   0.968   2.303
 1502WAT     H1 6074   2.588   0.992   2.310
 1502WAT     H2 6075   2.706   0.999   2.216
 1502WAT    EPW 6076   2.672   0.975   2.292
 1503WAT      O 6077   3.524   3.605   1.906
 1503WAT     H1 6078   3.434   3.606   1.873
 1503WAT     H2 6079   3.567   3.676   1.858
 1503WAT    EPW 6080   3.517   3.615   1.896
 1504WAT      O 6081   1.134   2.104   2.234
 1504WAT     H1 6082   1.124   2.049   2.156
 1504WAT     H2 6083   1.221   2.143   2.224
 1504WAT    EPW 6084   1.144   2.102   2.222
 1505WAT      O 6085   0.895   0.820   2.092
 1505WAT     H1 6086   0.912   0.899   2.143
 1505WAT     H2 6087   0.886   0.851   2.002
 1505WAT    EPW 6088   0.896   0.835   2.087
 1506WAT      O 6089   3.373   2.152   3.820
 1506WAT     H1 6090   3.300   2.092   3.806
 1506WAT     H2 6091   3.451   2.097   3.814
 1506WAT    EPW 6092   3.373   2.137   3.817
 1507WAT      O 6093   2.966   0.957   0.770
 1507WAT     H1 6094   2.920   1.020   0.825
 1507WAT     H2 6095   2.917   0.876   0.781
 1507WAT    EPW 6096   2.954   0.955   0.779
 1508WAT      O 6097   0.052   3.405   1.572
 1508WAT     H1 6098  -0.006   3.432   1.643
 1508WAT     H2 6099   0.068   3.312   1.589
 1508WAT    EPW 6100   0.046   3.396   1.584
 1509WAT      O 6101   2.519   2.490   1.058
 1509WAT     H1 6102   2.452   2.532   1.110
 1509WAT     H2 6103   2.528   2.546   0.981
 1509WAT    EPW 6104   2.512   2.503   1.055
 1510WAT      O 6105   2.728   3.995   4.057
 1510WAT     H1 6106   2.770   3.909   4.064
 1510WAT     H2 6107   2.709   4.020   4.147
 1510WAT    EPW 6108   2.731   3.987   4.070
 1511WAT      O 6109   1.065   3.884   2.281
 1511WAT     H1 6110   1.016   3.956   2.242
 1511WAT     H2 6111   1.153   3.918   2.295
 1511WAT    EPW 6112   1.070   3.898   2.278
 1512WAT      O 6113   1.013   0.856   3.190
 1512WAT     H1 6114   1.038   0.771   3.227
 1512WAT     H2 6115   1.014   0.843   3.096
 1512WAT    EPW 6116   1.016   0.843   3.183
 1513WAT      O 6117   0.580   2.088   1.711
 1513WAT     H1 6118   0.496   2.043   1.721
 1513WAT     H2 6119   0.593   2.133   1.794
 1513WAT    EPW 6120   0.570   2.088   1.723
 1514WAT      O 6121   2.623   0.191   2.658
 1514WAT     H1 6122   2.654   0.240   2.582
 1514WAT     H2 6123   2.702   0.169   2.707
 1514WAT    EPW 6124   2.637   0.195   2.654
 1515WAT      O 6125   2.860   2.277   3.411
 1515WAT     H1 6126   2.860   2.357   3.464
 1515WAT     H2 6127   2.861   2.308   3.321
 1515WAT    EPW 6128   2.860   2.292   3.406
 1516WAT      O 6129   2.288   0.309   0.428
 1516WAT     H1 6130   2.205   0.315   0.382
 1516WAT     H2 6131   2.265   0.318   0.521
 1516WAT    EPW 6132   2.274   0.311   0.434
 1517WAT      O 6133   1.336   2.493   1.787
 1517WAT     H1 6134   1.392   2.568   1.769
 1517WAT     H2 6135   1.385   2.418   1.752
 1517WAT    EPW 6136   1.349   2.493   1.780
 1518WAT      O 6137   3.306   0.332   1.544
 1518WAT     H1 6138   3.384   0.306   1.594
 1518WAT     H2 6139   3.341   0.372   1.465
 1518WAT    EPW 6140   3.321   0.334   1.540
 1519WAT      O 6141   2.317   2.587   1.255
 1519WAT     H1 6142   2.326   2.540   1.338
 1519WAT     H2 6143   2.223   2.589   1.239
 1519WAT    EPW 6144   2.306   2.581   1.264
 1520WAT      O 6145   0.286   2.874   2.934
 1520WAT     H1 6146   0.298   2.937   2.863
 1520WAT     H2 6147   0.370   2.827   2.938
 1520WAT    EPW 6148   0.299   2.876   2.926
 1521WAT      O 6149   3.321   2.288   3.119
 1521WAT     H1 6150   3.376   2.291   3.198
 1521WAT     H2 6151   3.383   2.294   3.046
 1521WAT    EPW 6152   3.337   2.289   3.120
 1522WAT      O 6153   2.903   4.148   3.111
 1522WAT     H1 6154   2.865   4.079   3.167
 1522WAT     H2 6155   2.964   4.194   3.169
 1522WAT    EPW 6156   2.906   4.144   3.126
 1523WAT      O 6157   0.370   0.850   0.633
 1523WAT     H1 6158   0.446   0.805   0.595
 1523WAT     H2 6159   0.362   0.930   0.582
 1523WAT    EPW 6160   0.379   0.854   0.621
 1524WAT      O 6161   1.238   3.149   2.452
 1524WAT     H1 6162   1.257   3.061   2.420
 1524WAT     H2 6163   1.283   3.155   2.536
 1524WAT    EPW 6164   1.246   3.139   2.459
 1525WAT      O 6165   0.667   0.469   0.986
 1525WAT     H1 6166   0.631   0.464   0.897
 1525WAT     H2 6167   0.599   0.430   1.041
 1525WAT    EPW 6168   0.653   0.463   0.981
 1526WAT      O 6169   0.636   2.191   1.434
 1526WAT     H1 6170   0.542   2.203   1.422
 1526WAT     H2 6171   0.644   2.154   1.522
 1526WAT    EPW 6172   0.624   2.188   1.444
 1527WAT      O 6173   2.572   3.607   3.315
 1527WAT     H1 6174   2.541   3.682   3.264
 1527WAT     H2 6175   2.660   3.632   3.344
 1527WAT    EPW 6176   2.580   3.620   3.312
 1528WAT      O 6177   2.859   2.130   3.721
 1528WAT     H1 6178   2.772   2.165   3.705
 1528WAT     H2 6179   2.913   2.207   3.739
 1528WAT    EPW 6180   2.855   2.145   3.721
 1529WAT      O 6181   1.468   2.773   0.012
 1529WAT     H1 6182   1.437   2.789  -0.078
 1529WAT     H2 6183   1.417   2.698   0.041
 1529WAT    EPW 6184   1.457   2.765   0.004
 1530WAT      O 6185   0.309   3.739   0.335
 1530WAT     H1 6186   0.391   3.723   0.289
 1530WAT     H2 6187   0.321   3.698   0.421
 1530WAT    EPW 6188   0.321   3.732   0.340
 1531WAT      O 6189   1.371   1.682   1.259
 1531WAT     H1 6190   1.463   1.678   1.284
 1531WAT     H2 6191   1.343   1.591   1.253
 1531WAT    EPW 6192   1.379   1.669   1.262
 1532WAT      O 6193   3.482   2.617   3.848
 1532WAT     H1 6194   3.420   2.637   3.778
 1532WAT     H2 6195   3.505   2.525   3.833
 1532WAT    EPW 6196   3.477   2.608   3.837
 1533WAT      O 6197   3.739   3.940   1.178
 1533WAT     H1 6198   3.744   4.035   1.172
 1533WAT     H2 6199   3.694   3.923   1.261
 1533WAT    EPW 6200   3.734   3.950   1.188
 1534WAT      O 6201   0.552   3.086   1.676
 1534WAT     H1 6202   0.513   3.153   1.732
 1534WAT     H2 6203   0.592   3.024   1.737
 1534WAT    EPW 6204   0.552   3.087   1.691
 1535WAT      O 6205   3.526   2.594   0.591
 1535WAT     H1 6206   3.542   2.666   0.530
 1535WAT     H2 6207   3.580   2.523   0.559
 1535WAT    EPW 6208   3.535   2.594   0.579
 1536WAT      O 6209   0.774   1.660   3.300
 1536WAT     H1 6210   0.701   1.722   3.310
 1536WAT     H2 6211   0.767   1.630   3.210
 1536WAT    EPW 6212   0.763   1.664   3.290
 1537WAT      O 6213   0.022   3.295   3.380
 1537WAT     H1 6214   0.003   3.227   3.316
 1537WAT     H2 6215  -0.063   3.337   3.396
 1537WAT    EPW 6216   0.008   3.292   3.374
 1538WAT      O 6217   0.270   2.965   1.618
 1538WAT     H1 6218   0.334   2.978   1.549
 1538WAT     H2 6219   0.309   2.899   1.675
 1538WAT    EPW 6220   0.284   2.958   1.616
 1539WAT      O 6221   1.868   0.865   2.542
 1539WAT     H1 6222   1.956   0.897   2.561
 1539WAT     H2 6223   1.879   0.813   2.462
 1539WAT    EPW 6224   1.881   0.862   2.534
 1540WAT      O 6225   3.123   0.726   3.610
 1540WAT     H1 6226   3.125   0.741   3.515
 1540WAT     H2 6227   3.083   0.639   3.620
 1540WAT    EPW 6228   3.118   0.716   3.599
 1541WAT      O 6229   1.477   0.868   0.697
 1541WAT     H1 6230   1.509   0.826   0.777
 1541WAT     H2 6231   1.386   0.890   0.715
 1541WAT    EPW 6232   1.470   0.865   0.710
 1542WAT      O 6233   0.780   2.110   1.189
 1542WAT     H1 6234   0.731   2.124   1.107
 1542WAT     H2 6235   0.719   2.136   1.258
 1542WAT    EPW 6236   0.765   2.115   1.187
 1543WAT      O 6237   0.767   0.102   0.698
 1543WAT     H1 6238   0.679   0.136   0.686
 1543WAT     H2 6239   0.820   0.148   0.632
 1543WAT    EPW 6240   0.763   0.112   0.688
 1544WAT      O 6241   1.339   1.414   3.994
 1544WAT     H1 6242   1.395   1.396   3.919
 1544WAT     H2 6243   1.394   1.391   4.070
 1544WAT    EPW 6244   1.354   1.408   3.994
 1545WAT      O 6245   1.444   0.546   1.417
 1545WAT     H1 6246   1.495   0.617   1.456
 1545WAT     H2 6247   1.498   0.468   1.432
 1545WAT    EPW 6248   1.458   0.545   1.424
 1546WAT      O 6249   1.845   3.416   2.242
 1546WAT     H1 6250   1.851   3.465   2.161
 1546WAT     H2 6251   1.793   3.339   2.220
 1546WAT    EPW 6252   1.839   3.412   2.229
 1547WAT      O 6253   1.248   2.700   1.058
 1547WAT     H1 6254   1.247   2.703   0.962
 1547WAT     H2 6255   1.336   2.669   1.080
 1547WAT    EPW 6256   1.260   2.697   1.048
 1548WAT      O 6257   0.570   3.383   1.855
 1548WAT     H1 6258   0.605   3.374   1.766
 1548WAT     H2 6259   0.602   3.469   1.884
 1548WAT    EPW 6260   0.579   3.393   1.847
 1549WAT      O 6261   1.433   2.804   0.531
 1549WAT     H1 6262   1.524   2.831   0.517
 1549WAT     H2 6263   1.391   2.879   0.572
 1549WAT    EPW 6264   1.440   2.817   0.535
 1550WAT      O 6265   3.157   0.376   4.082
 1550WAT     H1 6266   3.173   0.323   4.005
 1550WAT     H2 6267   3.229   0.439   4.083
 1550WAT    EPW 6268   3.169   0.378   4.072
 1551WAT      O 6269   1.099   2.997   0.531
 1551WAT     H1 6270   1.040   2.932   0.493
 1551WAT     H2 6271   1.169   3.006   0.467
 1551WAT    EPW 6272   1.101   2.990   0.518
 1552WAT      O 6273   3.065   0.172   3.242
 1552WAT     H1 6274   3.045   0.198   3.332
 1552WAT     H2 6275   3.053   0.252   3.191
 1552WAT    EPW 6276   3.061   0.186   3.247
 1553WAT      O 6277   2.954   3.645   0.540
 1553WAT     H1 6278   2.878   3.671   0.488
 1553WAT     H2 6279   2.955   3.706   0.614
 1553WAT    EPW 6280   2.944   3.657   0.543
 1554WAT      O 6281   0.990   3.400   2.220
 1554WAT     H1 6282   1.021   3.487   2.196
 1554WAT     H2 6283   0.977   3.404   2.315
 1554WAT    EPW 6284   0.992   3.412   2.229
 1555WAT      O 6285   2.210   0.151   1.535
 1555WAT     H1 6286   2.172   0.172   1.620
 1555WAT     H2 6287   2.141   0.105   1.488
 1555WAT    EPW 6288   2.196   0.147   1.540
 1556WAT      O 6289   3.245   0.449   0.706
 1556WAT     H1 6290   3.268   0.542   0.699
 1556WAT     H2 6291   3.162   0.448   0.754
 1556WAT    EPW 6292   3.237   0.461   0.711
 1557WAT      O 6293   0.048   3.026   2.642
 1557WAT     H1 6294   0.072   3.032   2.549
 1557WAT     H2 6295   0.127   3.054   2.688
 1557WAT    EPW 6296   0.062   3.031   2.635
 1558WAT      O 6297   3.413   2.959   2.451
 1558WAT     H1 6298   3.412   2.970   2.546
 1558WAT     H2 6299   3.331   3.000   2.422
 1558WAT    EPW 6300   3.402   2.966   2.460
 1559WAT      O 6301   3.257   2.803   3.940
 1559WAT     H1 6302   3.344   2.769   3.962
 1559WAT     H2 6303   3.268   2.842   3.853
 1559WAT    EPW 6304   3.270   2.803   3.931
 1560WAT      O 6305   0.698   3.652   1.933
 1560WAT     H1 6306   0.758   3.723   1.911
 1560WAT     H2 6307   0.731   3.617   2.016
 1560WAT    EPW 6308   0.710   3.657   1.941
 1561WAT      O 6309   0.651   0.129   3.183
 1561WAT     H1 6310   0.576   0.119   3.124
 1561WAT     H2 6311   0.615   0.114   3.270
 1561WAT    EPW 6312   0.637   0.125   3.187
 1562WAT      O 6313   2.707   1.057   1.213
 1562WAT     H1 6314   2.788   1.031   1.256
 1562WAT     H2 6315   2.679   0.980   1.164
 1562WAT    EPW 6316   2.714   1.044   1.212
 1563WAT      O 6317   1.715   2.610   0.547
 1563WAT     H1 6318   1.742   2.540   0.606
 1563WAT     H2 6319   1.656   2.568   0.485
 1563WAT    EPW 6320   1.711   2.596   0.547
 1564WAT      O 6321   3.195   3.289   0.145
 1564WAT     H1 6322   3.290   3.276   0.153
 1564WAT     H2 6323   3.176   3.275   0.052
 1564WAT    EPW 6324   3.205   3.286   0.134
 1565WAT      O 6325   2.868   3.637   3.115
 1565WAT     H1 6326   2.792   3.589   3.084
 1565WAT     H2 6327   2.883   3.703   3.048
 1565WAT    EPW 6328   2.860   3.639   3.102
 1566WAT      O 6329   3.202   0.289   3.820
 1566WAT     H1 6330   3.272   0.295   3.754
 1566WAT     H2 6331   3.169   0.200   3.812
 1566WAT    EPW 6332   3.207   0.278   3.810
 1567WAT      O 6333   0.871   1.064   1.199
 1567WAT     H1 6334   0.895   1.016   1.120
 1567WAT     H2 6335   0.872   0.998   1.268
 1567WAT    EPW 6336   0.875   1.049   1.198
 1568WAT      O 6337   3.346   0.827   1.676
 1568WAT     H1 6338   3.260   0.785   1.682
 1568WAT     H2 6339   3.345   0.891   1.747
 1568WAT    EPW 6340   3.334   0.830   1.686
 1569WAT      O 6341   3.697   2.984   0.525
 1569WAT     H1 6342   3.624   2.985   0.463
 1569WAT     H2 6343   3.705   3.075   0.554
 1569WAT    EPW 6344   3.689   2.996   0.521
 1570WAT      O 6345   1.554   3.044   1.617
 1570WAT     H1 6346   1.608   2.975   1.654
 1570WAT     H2 6347   1.502   3.077   1.691
 1570WAT    EPW 6348   1.554   3.040   1.631
 1571WAT      O 6349   0.440   0.610   0.448
 1571WAT     H1 6350   0.460   0.656   0.367
 1571WAT     H2 6351   0.352   0.641   0.471
 1571WAT    EPW 6352   0.431   0.620   0.441
 1572WAT      O 6353   0.964   1.977   3.798
 1572WAT     H1 6354   0.916   1.928   3.865
 1572WAT     H2 6355   0.901   1.987   3.726
 1572WAT    EPW 6356   0.949   1.971   3.798
 1573WAT      O 6357   1.118   3.043   3.847
 1573WAT     H1 6358   1.118   2.960   3.800
 1573WAT     H2 6359   1.106   3.019   3.939
 1573WAT    EPW 6360   1.116   3.029   3.853
 1574WAT      O 6361   3.318   1.110   0.545
 1574WAT     H1 6362   3.258   1.036   0.541
 1574WAT     H2 6363   3.277   1.177   0.491
 1574WAT    EPW 6364   3.305   1.109   0.537
 1575WAT      O 6365   1.659   1.714   3.734
 1575WAT     H1 6366   1.719   1.643   3.712
 1575WAT     H2 6367   1.634   1.752   3.650
 1575WAT    EPW 6368   1.663   1.710   3.720
 1576WAT      O 6369   1.325   2.726   2.150
 1576WAT     H1 6370   1.262   2.668   2.109
 1576WAT     H2 6371   1.398   2.669   2.176
 1576WAT    EPW 6372   1.327   2.711   2.148
 1577WAT      O 6373   2.682   2.952   0.521
 1577WAT     H1 6374   2.709   2.944   0.429
 1577WAT     H2 6375   2.670   2.862   0.550
 1577WAT    EPW 6376   2.684   2.939   0.513
 1578WAT      O 6377   1.333   2.791   1.497
 1578WAT     H1 6378   1.408   2.848   1.518
 1578WAT     H2 6379   1.301   2.761   1.582
 1578WAT    EPW 6380   1.339   2.795   1.511
 1579WAT      O 6381   2.270   2.244   1.471
 1579WAT     H1 6382   2.222   2.320   1.505
 1579WAT     H2 6383   2.211   2.170   1.482
 1579WAT    EPW 6384   2.256   2.245   1.477
 1580WAT      O 6385   3.015   3.095   1.465
 1580WAT     H1 6386   3.079   3.091   1.536
 1580WAT     H2 6387   2.989   3.187   1.461
 1580WAT    EPW 6388   3.020   3.107   1.474
 1581WAT      O 6389   0.602   1.124   3.381
 1581WAT     H1 6390   0.551   1.043   3.388
 1581WAT     H2 6391   0.658   1.110   3.305
 1581WAT    EPW 6392   0.603   1.111   3.372
 1582WAT      O 6393   0.871   2.343   3.571
 1582WAT     H1 6394   0.790   2.307   3.606
 1582WAT     H2 6395   0.936   2.329   3.641
 1582WAT    EPW 6396   0.869   2.336   3.585
 1583WAT      O 6397   2.056   1.186   3.499
 1583WAT     H1 6398   2.012   1.234   3.429
 1583WAT     H2 6399   2.054   1.095   3.470
 1583WAT    EPW 6400   2.050   1.180   3.486
 1584WAT      O 6401   0.672   2.500   2.324
 1584WAT     H1 6402   0.700   2.419   2.366
 1584WAT     H2 6403   0.753   2.550   2.313
 1584WAT    EPW 6404   0.686   2.496   2.328
 1585WAT      O 6405   1.909   3.280   3.521
 1585WAT     H1 6406   1.850   3.349   3.490
 1585WAT     H2 6407   1.992   3.297   3.477
 1585WAT    EPW 6408   1.912   3.291   3.511
 1586WAT      O 6409   1.126   1.111   1.465
 1586WAT     H1 6410   1.032   1.094   1.458
 1586WAT     H2 6411   1.165   1.062   1.393
 1586WAT    EPW 6412   1.119   1.102   1.455
 1587WAT      O 6413   0.104   2.252   2.348
 1587WAT     H1 6414   0.148   2.224   2.429
 1587WAT     H2 6415   0.011   2.247   2.368
 1587WAT    EPW 6416   0.098   2.247   2.361
 1588WAT      O 6417   2.198   2.496   1.585
 1588WAT     H1 6418   2.203   2.442   1.664
 1588WAT     H2 6419   2.186   2.585   1.619
 1588WAT    EPW 6420   2.197   2.501   1.600
 1589WAT      O 6421   0.273   1.096   2.182
 1589WAT     H1 6422   0.223   1.032   2.131
 1589WAT     H2 6423   0.220   1.176   2.179
 1589WAT    EPW 6424   0.259   1.098   2.175
 1590WAT      O 6425   2.142   2.128   0.684
 1590WAT     H1 6426   2.092   2.057   0.644
 1590WAT     H2 6427   2.171   2.181   0.610
 1590WAT    EPW 6428   2.139   2.125   0.669
 1591WAT      O 6429   0.401   2.785   1.843
 1591WAT     H1 6430   0.492   2.789   1.816
 1591WAT     H2 6431   0.386   2.693   1.867
 1591WAT    EPW 6432   0.411   2.773   1.843
 1592WAT      O 6433   3.200   3.419   3.560
 1592WAT     H1 6434   3.108   3.444   3.566
 1592WAT     H2 6435   3.198   3.327   3.534
 1592WAT    EPW 6436   3.188   3.410   3.557
 1593WAT      O 6437   3.074   2.892   2.530
 1593WAT     H1 6438   3.090   2.979   2.494
 1593WAT     H2 6439   2.994   2.902   2.581
 1593WAT    EPW 6440   3.065   2.904   2.532
 1594WAT      O 6441   2.515   0.313   1.286
 1594WAT     H1 6442   2.498   0.397   1.329
 1594WAT     H2 6443   2.586   0.332   1.224
 1594WAT    EPW 6444   2.522   0.327   1.283
 1595WAT      O 6445   0.738   0.447   3.363
 1595WAT     H1 6446   0.772   0.357   3.367
 1595WAT     H2 6447   0.643   0.436   3.364
 1595WAT    EPW 6448   0.730   0.434   3.364
 1596WAT      O 6449   0.273   3.038   3.787
 1596WAT     H1 6450   0.260   3.096   3.712
 1596WAT     H2 6451   0.236   2.955   3.760
 1596WAT    EPW 6452   0.266   3.035   3.774
 1597WAT      O 6453   3.295   2.648   2.981
 1597WAT     H1 6454   3.368   2.697   2.944
 1597WAT     H2 6455   3.254   2.604   2.906
 1597WAT    EPW 6456   3.299   2.649   2.966
 1598WAT      O 6457   0.636   3.548   0.579
 1598WAT     H1 6458   0.678   3.542   0.493
 1598WAT     H2 6459   0.549   3.509   0.565
 1598WAT    EPW 6460   0.630   3.542   0.566
 1599WAT      O 6461   1.125   0.436   0.446
 1599WAT     H1 6462   1.205   0.460   0.399
 1599WAT     H2 6463   1.154   0.419   0.536
 1599WAT    EPW 6464   1.139   0.437   0.452
 1600WAT      O 6465   3.743   3.931   4.074
 1600WAT     H1 6466   3.675   3.963   4.133
 1600WAT     H2 6467   3.801   3.880   4.130
 1600WAT    EPW 6468   3.742   3.928   4.089
 1601WAT      O 6469   1.545   3.224   2.307
 1601WAT     H1 6470   1.540   3.248   2.399
 1601WAT     H2 6471   1.488   3.148   2.299
 1601WAT    EPW 6472   1.537   3.217   2.318
 1602WAT      O 6473   1.890   3.939   2.833
 1602WAT     H1 6474   1.978   3.901   2.831
 1602WAT     H2 6475   1.900   4.024   2.790
 1602WAT    EPW 6476   1.903   3.945   2.827
 1603WAT      O 6477   1.275   2.463   2.749
 1603WAT     H1 6478   1.244   2.405   2.819
 1603WAT     H2 6479   1.236   2.427   2.669
 1603WAT    EPW 6480   1.266   2.450   2.748
 1604WAT      O 6481   2.491   1.669   0.168
 1604WAT     H1 6482   2.536   1.595   0.128
 1604WAT     H2 6483   2.406   1.634   0.195
 1604WAT    EPW 6484   2.485   1.654   0.166
 1605WAT      O 6485   2.531   3.306   3.308
 1605WAT     H1 6486   2.533   3.375   3.241
 1605WAT     H2 6487   2.448   3.260   3.292
 1605WAT    EPW 6488   2.520   3.309   3.297
 1606WAT      O 6489   3.680   2.377   0.459
 1606WAT     H1 6490   3.742   2.416   0.397
 1606WAT     H2 6491   3.597   2.374   0.412
 1606WAT    EPW 6492   3.677   2.382   0.445
 1607WAT      O 6493   1.849   3.178   0.888
 1607WAT     H1 6494   1.856   3.111   0.820
 1607WAT     H2 6495   1.795   3.247   0.849
 1607WAT    EPW 6496   1.843   3.178   0.874
 1608WAT      O 6497   1.931   3.895   3.665
 1608WAT     H1 6498   1.950   3.938   3.582
 1608WAT     H2 6499   1.876   3.957   3.713
 1608WAT    EPW 6500   1.926   3.909   3.661
 1609WAT      O 6501   3.256   1.498   1.103
 1609WAT     H1 6502   3.275   1.405   1.102
 1609WAT     H2 6503   3.341   1.540   1.117
 1609WAT    EPW 6504   3.270   1.492   1.104
 1610WAT      O 6505   3.332   3.445   0.876
 1610WAT     H1 6506   3.383   3.464   0.955
 1610WAT     H2 6507   3.357   3.356   0.852
 1610WAT    EPW 6508   3.342   3.436   0.883
 1611WAT      O 6509   3.114   3.357   1.564
 1611WAT     H1 6510   3.158   3.321   1.641
 1611WAT     H2 6511   3.182   3.409   1.520
 1611WAT    EPW 6512   3.129   3.359   1.568
 1612WAT      O 6513   2.329   0.085   2.881
 1612WAT     H1 6514   2.384   0.144   2.933
 1612WAT     H2 6515   2.250   0.134   2.864
 1612WAT    EPW 6516   2.326   0.099   2.886
 1613WAT      O 6517   2.788   3.774   3.456
 1613WAT     H1 6518   2.783   3.736   3.544
 1613WAT     H2 6519   2.879   3.762   3.430
 1613WAT    EPW 6520   2.800   3.767   3.464
 1614WAT      O 6521   1.908   3.555   2.691
 1614WAT     H1 6522   1.818   3.539   2.721
 1614WAT     H2 6523   1.935   3.634   2.738
 1614WAT    EPW 6524   1.900   3.563   2.701
 1615WAT      O 6525   3.721   0.858   0.561
 1615WAT     H1 6526   3.778   0.848   0.485
 1615WAT     H2 6527   3.679   0.943   0.547
 1615WAT    EPW 6528   3.723   0.868   0.549
 1616WAT      O 6529   2.245   3.103   0.460
 1616WAT     H1 6530   2.237   3.025   0.514
 1616WAT     H2 6531   2.185   3.088   0.387
 1616WAT    EPW 6532   2.236   3.091   0.457
 1617WAT      O 6533   3.064   1.418   0.784
 1617WAT     H1 6534   3.045   1.454   0.870
 1617WAT     H2 6535   3.155   1.386   0.791
 1617WAT    EPW 6536   3.074   1.418   0.796
 1618WAT      O 6537   2.062   2.998   1.262
 1618WAT     H1 6538   1.969   2.987   1.281
 1618WAT     H2 6539   2.106   2.945   1.330
 1618WAT    EPW 6540   2.056   2.989   1.274
 1619WAT      O 6541   0.178   3.930   0.970
 1619WAT     H1 6542   0.114   3.890   0.912
 1619WAT     H2 6543   0.126   3.976   1.036
 1619WAT    EPW 6544   0.163   3.931   0.971
 1620WAT      O 6545   1.234   1.917   3.359
 1620WAT     H1 6546   1.176   1.924   3.283
 1620WAT     H2 6547   1.187   1.963   3.429
 1620WAT    EPW 6548   1.220   1.924   3.358
 1621WAT      O 6549   2.323   2.567   2.635
 1621WAT     H1 6550   2.279   2.482   2.642
 1621WAT     H2 6551   2.257   2.630   2.665
 1621WAT    EPW 6552   2.308   2.564   2.640
 1622WAT      O 6553   1.570   3.297   0.799
 1622WAT     H1 6554   1.507   3.366   0.780
 1622WAT     H2 6555   1.543   3.262   0.884
 1622WAT    EPW 6556   1.558   3.301   0.807
 1623WAT      O 6557   0.449   0.357   0.297
 1623WAT     H1 6558   0.436   0.451   0.311
 1623WAT     H2 6559   0.361   0.321   0.295
 1623WAT    EPW 6560   0.436   0.365   0.299
 1624WAT      O 6561   0.323   3.041   0.983
 1624WAT     H1 6562   0.328   3.030   0.888
 1624WAT     H2 6563   0.272   3.121   0.995
 1624WAT    EPW 6564   0.317   3.050   0.972
 1625WAT      O 6565   0.529   0.617   3.749
 1625WAT     H1 6566   0.446   0.598   3.706
 1625WAT     H2 6567   0.536   0.712   3.747
 1625WAT    EPW 6568   0.519   0.627   3.743
 1626WAT      O 6569   0.956   3.742   3.564
 1626WAT     H1 6570   1.001   3.800   3.503
 1626WAT     H2 6571   0.993   3.764   3.650
 1626WAT    EPW 6572   0.967   3.753   3.568
 1627WAT      O 6573   3.434   0.885   2.309
 1627WAT     H1 6574   3.516   0.856   2.349
 1627WAT     H2 6575   3.366   0.842   2.361
 1627WAT    EPW 6576   3.435   0.876   2.321
 1628WAT      O 6577   0.434   0.904   1.705
 1628WAT     H1 6578   0.490   0.890   1.782
 1628WAT     H2 6579   0.496   0.913   1.632
 1628WAT    EPW 6580   0.450   0.903   1.705
 1629WAT      O 6581   2.567   2.743   1.604
 1629WAT     H1 6582   2.543   2.782   1.520
 1629WAT     H2 6583   2.518   2.660   1.607
 1629WAT    EPW 6584   2.557   2.737   1.593
 1630WAT      O 6585   3.700   3.039   0.881
 1630WAT     H1 6586   3.686   3.113   0.822
 1630WAT     H2 6587   3.718   3.079   0.966
 1630WAT    EPW 6588   3.700   3.054   0.885
 1631WAT      O 6589   3.586   0.407   0.076
 1631WAT     H1 6590   3.512   0.399   0.136
 1631WAT     H2 6591   3.645   0.336   0.101
 1631WAT    EPW 6592   3.584   0.397   0.087
 1632WAT      O 6593   0.016   3.784   0.544
 1632WAT     H1 6594   0.034   3.859   0.602
 1632WAT     H2 6595   0.097   3.733   0.546
 1632WAT    EPW 6596   0.029   3.787   0.552
 1633WAT      O 6597   3.433   1.892   3.103
 1633WAT     H1 6598   3.438   1.844   3.186
 1633WAT     H2 6599   3.364   1.957   3.117
 1633WAT    EPW 6600   3.425   1.894   3.116
 1634WAT      O 6601   2.175   0.415   3.618
 1634WAT     H1 6602   2.143   0.439   3.705
 1634WAT     H2 6603   2.270   0.413   3.627
 1634WAT    EPW 6604   2.183   0.418   3.631
 1635WAT      O 6605   2.643   0.694   2.839
 1635WAT     H1 6606   2.549   0.679   2.830
 1635WAT     H2 6607   2.653   0.789   2.833
 1635WAT    EPW 6608   2.632   0.704   2.837
 1636WAT      O 6609   0.952   0.342   1.549
 1636WAT     H1 6610   1.005   0.367   1.473
 1636WAT     H2 6611   0.866   0.323   1.514
 1636WAT    EPW 6612   0.948   0.343   1.535
 1637WAT      O 6613   3.391   3.228   1.359
 1637WAT     H1 6614   3.403   3.289   1.432
 1637WAT     H2 6615   3.409   3.142   1.395
 1637WAT    EPW 6616   3.395   3.225   1.373
 1638WAT      O 6617   2.978   2.829   0.517
 1638WAT     H1 6618   2.922   2.895   0.556
 1638WAT     H2 6619   3.065   2.869   0.516
 1638WAT    EPW 6620   2.982   2.843   0.522
 1639WAT      O 6621   3.081   0.041   1.875
 1639WAT     H1 6622   3.012  -0.010   1.917
 1639WAT     H2 6623   3.155   0.034   1.936
 1639WAT    EPW 6624   3.082   0.034   1.889
 1640WAT      O 6625   1.824   1.314   1.977
 1640WAT     H1 6626   1.859   1.237   1.931
 1640WAT     H2 6627   1.899   1.348   2.026
 1640WAT    EPW 6628   1.839   1.308   1.977
 1641WAT      O 6629   1.964   0.115   3.030
 1641WAT     H1 6630   1.950   0.210   3.024
 1641WAT     H2 6631   1.968   0.086   2.940
 1641WAT    EPW 6632   1.963   0.124   3.018
 1642WAT      O 6633   0.877   2.494   0.958
 1642WAT     H1 6634   0.797   2.542   0.978
 1642WAT     H2 6635   0.927   2.495   1.040
 1642WAT    EPW 6636   0.873   2.501   0.972
 1643WAT      O 6637   0.295   3.568   2.426
 1643WAT     H1 6638   0.271   3.526   2.343
 1643WAT     H2 6639   0.256   3.656   2.420
 1643WAT    EPW 6640   0.287   3.574   2.414
 1644WAT      O 6641   2.686   3.690   0.435
 1644WAT     H1 6642   2.693   3.595   0.421
 1644WAT     H2 6643   2.594   3.709   0.420
 1644WAT    EPW 6644   2.675   3.680   0.432
 1645WAT      O 6645   3.588   2.767   3.476
 1645WAT     H1 6646   3.619   2.752   3.387
 1645WAT     H2 6647   3.526   2.697   3.493
 1645WAT    EPW 6648   3.584   2.756   3.467
 1646WAT      O 6649   2.566   3.500   2.397
 1646WAT     H1 6650   2.517   3.431   2.441
 1646WAT     H2 6651   2.569   3.473   2.305
 1646WAT    EPW 6652   2.560   3.488   2.390
 1647WAT      O 6653   2.358   2.927   2.210
 1647WAT     H1 6654   2.343   2.920   2.304
 1647WAT     H2 6655   2.303   2.859   2.172
 1647WAT    EPW 6656   2.349   2.917   2.218
 1648WAT      O 6657   0.647   2.086   0.434
 1648WAT     H1 6658   0.608   2.174   0.431
 1648WAT     H2 6659   0.602   2.042   0.505
 1648WAT    EPW 6660   0.636   2.092   0.443
 1649WAT      O 6661   3.638   1.479   2.581
 1649WAT     H1 6662   3.591   1.560   2.601
 1649WAT     H2 6663   3.604   1.452   2.496
 1649WAT    EPW 6664   3.628   1.486   2.573
 1650WAT      O 6665   3.282   1.220   3.451
 1650WAT     H1 6666   3.369   1.223   3.410
 1650WAT     H2 6667   3.300   1.191   3.540
 1650WAT    EPW 6668   3.296   1.217   3.457
 1651WAT      O 6669   0.676   0.208   1.725
 1651WAT     H1 6670   0.662   0.147   1.652
 1651WAT     H2 6671   0.754   0.174   1.769
 1651WAT    EPW 6672   0.684   0.196   1.721
 1652WAT      O 6673   3.637   1.313   1.825
 1652WAT     H1 6674   3.567   1.378   1.819
 1652WAT     H2 6675   3.671   1.306   1.736
 1652WAT    EPW 6676   3.632   1.321   1.813
 1653WAT      O 6677   3.705   0.319   0.713
 1653WAT     H1 6678   3.742   0.267   0.642
 1653WAT     H2 6679   3.666   0.255   0.773
 1653WAT    EPW 6680   3.705   0.304   0.712
 1654WAT      O 6681   2.734   4.078   3.574
 1654WAT     H1 6682   2.732   4.123   3.659
 1654WAT     H2 6683   2.704   3.989   3.594
 1654WAT    EPW 6684   2.730   4.072   3.588
 1655WAT      O 6685   3.370   2.117   0.156
 1655WAT     H1 6686   3.277   2.117   0.134
 1655WAT     H2 6687   3.373   2.090   0.248
 1655WAT    EPW 6688   3.358   2.114   0.165
 1656WAT      O 6689   2.117   2.491   0.206
 1656WAT     H1 6690   2.060   2.414   0.207
 1656WAT     H2 6691   2.071   2.556   0.260
 1656WAT    EPW 6692   2.104   2.489   0.213
 1657WAT      O 6693   2.021   3.268   0.594
 1657WAT     H1 6694   1.993   3.179   0.614
 1657WAT     H2 6695   2.096   3.257   0.536
 1657WAT    EPW 6696   2.027   3.255   0.589
 1658WAT      O 6697   1.843   1.691   0.122
 1658WAT     H1 6698   1.919   1.650   0.080
 1658WAT     H2 6699   1.788   1.720   0.050
 1658WAT    EPW 6700   1.846   1.689   0.107
 1659WAT      O 6701   0.710   3.513   0.303
 1659WAT     H1 6702   0.642   3.566   0.261
 1659WAT     H2 6703   0.691   3.423   0.275
 1659WAT    EPW 6704   0.698   3.508   0.294
 1660WAT      O 6705   2.778   0.650   1.112
 1660WAT     H1 6706   2.873   0.653   1.104
 1660WAT     H2 6707   2.753   0.563   1.080
 1660WAT    EPW 6708   2.787   0.639   1.107
 1661WAT      O 6709   0.952   0.331   3.914
 1661WAT     H1 6710   1.015   0.263   3.934
 1661WAT     H2 6711   0.867   0.293   3.939
 1661WAT    EPW 6712   0.949   0.317   3.920
 1662WAT      O 6713   2.178   0.180   4.085
 1662WAT     H1 6714   2.220   0.118   4.025
 1662WAT     H2 6715   2.249   0.209   4.143
 1662WAT    EPW 6716   2.193   0.176   4.084
 1663WAT      O 6717   1.118   3.150   2.089
 1663WAT     H1 6718   1.052   3.092   2.051
 1663WAT     H2 6719   1.068   3.209   2.146
 1663WAT    EPW 6720   1.102   3.150   2.091
 1664WAT      O 6721   3.756   2.452   1.950
 1664WAT     H1 6722   3.662   2.442   1.936
 1664WAT     H2 6723   3.787   2.365   1.973
 1664WAT    EPW 6724   3.748   2.439   1.951
 1665WAT      O 6725   0.890   1.459   2.145
 1665WAT     H1 6726   0.923   1.539   2.104
 1665WAT     H2 6727   0.968   1.403   2.154
 1665WAT    EPW 6728   0.905   1.462   2.141
 1666WAT      O 6729   0.138   1.979   4.035
 1666WAT     H1 6730   0.120   1.996   4.127
 1666WAT     H2 6731   0.123   1.885   4.024
 1666WAT    EPW 6732   0.134   1.969   4.046
 1667WAT      O 6733   1.417   0.947   2.903
 1667WAT     H1 6734   1.447   1.012   2.839
 1667WAT     H2 6735   1.322   0.947   2.893
 1667WAT    EPW 6736   1.408   0.956   2.893
 1668WAT      O 6737   0.952   1.848   0.717
 1668WAT     H1 6738   0.878   1.812   0.766
 1668WAT     H2 6739   0.957   1.939   0.746
 1668WAT    EPW 6740   0.943   1.856   0.727
 1669WAT      O 6741   3.537   1.648   2.971
 1669WAT     H1 6742   3.505   1.733   3.001
 1669WAT     H2 6743   3.623   1.639   3.012
 1669WAT    EPW 6744   3.544   1.658   2.981
 1670WAT      O 6745   0.193   1.076   2.949
 1670WAT     H1 6746   0.258   1.035   3.006
 1670WAT     H2 6747   0.181   1.013   2.878
 1670WAT    EPW 6748   0.200   1.062   2.947
 1671WAT      O 6749   0.701   1.982   3.069
 1671WAT     H1 6750   0.787   2.025   3.069
 1671WAT     H2 6751   0.697   1.936   3.153
 1671WAT    EPW 6752   0.712   1.982   3.080
 1672WAT      O 6753   1.081   0.324   1.298
 1672WAT     H1 6754   1.064   0.269   1.222
 1672WAT     H2 6755   1.120   0.403   1.262
 1672WAT    EPW 6756   1.084   0.327   1.283
 1673WAT      O 6757   2.283   1.299   2.820
 1673WAT     H1 6758   2.270   1.394   2.817
 1673WAT     H2 6759   2.211   1.264   2.767
 1673WAT    EPW 6760   2.271   1.307   2.813
 1674WAT      O 6761   0.831   3.953   2.122
 1674WAT     H1 6762   0.864   3.893   2.055
 1674WAT     H2 6763   0.770   3.901   2.173
 1674WAT    EPW 6764   0.828   3.938   2.120
 1675WAT      O 6765   0.332   2.612   2.601
 1675WAT     H1 6766   0.393   2.550   2.640
 1675WAT     H2 6767   0.387   2.673   2.553
 1675WAT    EPW 6768   0.347   2.611   2.600
 1676WAT      O 6769   1.855   0.808   3.798
 1676WAT     H1 6770   1.921   0.810   3.867
 1676WAT     H2 6771   1.782   0.857   3.833
 1676WAT    EPW 6772   1.854   0.814   3.812
 1677WAT      O 6773   1.126   2.920   1.173
 1677WAT     H1 6774   1.181   2.946   1.247
 1677WAT     H2 6775   1.175   2.850   1.130
 1677WAT    EPW 6776   1.139   2.914   1.177
 1678WAT      O 6777   2.412   0.075   2.252
 1678WAT     H1 6778   2.435   0.106   2.340
 1678WAT     H2 6779   2.439  -0.017   2.251
 1678WAT    EPW 6780   2.418   0.067   2.264
 1679WAT      O 6781   2.775   0.917   0.242
 1679WAT     H1 6782   2.716   0.921   0.317
 1679WAT     H2 6783   2.848   0.974   0.266
 1679WAT    EPW 6784   2.777   0.925   0.255
 1680WAT      O 6785   0.185   3.516   3.264
 1680WAT     H1 6786   0.191   3.585   3.330
 1680WAT     H2 6787   0.149   3.441   3.311
 1680WAT    EPW 6788   0.181   3.515   3.279
 1681WAT      O 6789   3.508   1.009   1.066
 1681WAT     H1 6790   3.533   0.957   1.142
 1681WAT     H2 6791   3.538   0.958   0.991
 1681WAT    EPW 6792   3.516   0.996   1.066
 1682WAT      O 6793   1.566   1.165   2.766
 1682WAT     H1 6794   1.579   1.219   2.688
 1682WAT     H2 6795   1.649   1.171   2.813
 1682WAT    EPW 6796   1.578   1.173   2.762
 1683WAT      O 6797   1.430   2.305   3.163
 1683WAT     H1 6798   1.456   2.301   3.071
 1683WAT     H2 6799   1.338   2.331   3.160
 1683WAT    EPW 6800   1.421   2.308   3.150
 1684WAT      O 6801   0.903   1.647   2.776
 1684WAT     H1 6802   0.943   1.687   2.853
 1684WAT     H2 6803   0.953   1.566   2.763
 1684WAT    EPW 6804   0.915   1.641   2.785
 1685WAT      O 6805   3.347   2.083   0.450
 1685WAT     H1 6806   3.301   2.166   0.448
 1685WAT     H2 6807   3.281   2.020   0.478
 1685WAT    EPW 6808   3.332   2.085   0.453
 1686WAT      O 6809   0.747   0.082   1.244
 1686WAT     H1 6810   0.754   0.173   1.274
 1686WAT     H2 6811   0.768   0.086   1.150
 1686WAT    EPW 6812   0.751   0.095   1.235
 1687WAT      O 6813   3.538   0.389   0.374
 1687WAT     H1 6814   3.498   0.325   0.315
 1687WAT     H2 6815   3.616   0.345   0.407
 1687WAT    EPW 6816   3.543   0.375   0.371
 1688WAT      O 6817   0.546   2.499   2.795
 1688WAT     H1 6818   0.617   2.551   2.758
 1688WAT     H2 6819   0.564   2.410   2.765
 1688WAT    EPW 6820   0.558   2.494   2.786
 1689WAT      O 6821   1.498   2.132   1.199
 1689WAT     H1 6822   1.410   2.162   1.174
 1689WAT     H2 6823   1.541   2.211   1.232
 1689WAT    EPW 6824   1.492   2.147   1.200
 1690WAT      O 6825   1.508   4.061   2.753
 1690WAT     H1 6826   1.559   4.125   2.702
 1690WAT     H2 6827   1.533   4.078   2.844
 1690WAT    EPW 6828   1.518   4.072   2.758
 1691WAT      O 6829   2.254   1.593   0.963
 1691WAT     H1 6830   2.301   1.514   0.991
 1691WAT     H2 6831   2.317   1.664   0.976
 1691WAT    EPW 6832   2.269   1.592   0.968
 1692WAT      O 6833   1.222   0.741   2.675
 1692WAT     H1 6834   1.305   0.694   2.678
 1692WAT     H2 6835   1.207   0.769   2.765
 1692WAT    EPW 6836   1.231   0.739   2.687
 1693WAT      O 6837   2.745   3.115   3.216
 1693WAT     H1 6838   2.729   3.090   3.125
 1693WAT     H2 6839   2.659   3.140   3.250
 1693WAT    EPW 6840   2.732   3.115   3.209
 1694WAT      O 6841   2.335   1.934   3.726
 1694WAT     H1 6842   2.347   1.850   3.771
 1694WAT     H2 6843   2.339   1.999   3.796
 1694WAT    EPW 6844   2.337   1.931   3.741
 1695WAT      O 6845   2.998   3.724   1.965
 1695WAT     H1 6846   2.988   3.688   1.876
 1695WAT     H2 6847   2.968   3.814   1.957
 1695WAT    EPW 6848   2.993   3.731   1.952
 1696WAT      O 6849   3.637   0.311   3.316
 1696WAT     H1 6850   3.600   0.398   3.331
 1696WAT     H2 6851   3.569   0.251   3.346
 1696WAT    EPW 6852   3.623   0.315   3.322
 1697WAT      O 6853   3.702   0.829   2.591
 1697WAT     H1 6854   3.707   0.805   2.498
 1697WAT     H2 6855   3.793   0.834   2.619
 1697WAT    EPW 6856   3.714   0.826   2.582
 1698WAT      O 6857   1.933   0.724   3.170
 1698WAT     H1 6858   1.984   0.661   3.220
 1698WAT     H2 6859   1.997   0.786   3.136
 1698WAT    EPW 6860   1.948   0.724   3.172
 1699WAT      O 6861   3.763   2.228   0.687
 1699WAT     H1 6862   3.705   2.152   0.680
 1699WAT     H2 6863   3.735   2.286   0.615
 1699WAT    EPW 6864   3.751   2.225   0.676
 1700WAT      O 6865   2.838   0.254   1.318
 1700WAT     H1 6866   2.850   0.164   1.349
 1700WAT     H2 6867   2.807   0.302   1.394
 1700WAT    EPW 6868   2.836   0.248   1.332
 1701WAT      O 6869   2.524   2.628   1.971
 1701WAT     H1 6870   2.545   2.537   1.989
 1701WAT     H2 6871   2.429   2.634   1.986
 1701WAT    EPW 6872   2.514   2.617   1.976
 1702WAT      O 6873   0.473   0.461   1.413
 1702WAT     H1 6874   0.440   0.538   1.367
 1702WAT     H2 6875   0.506   0.495   1.497
 1702WAT    EPW 6876   0.473   0.476   1.418
 1703WAT      O 6877   0.774   1.339   3.045
 1703WAT     H1 6878   0.724   1.276   2.994
 1703WAT     H2 6879   0.737   1.333   3.133
 1703WAT    EPW 6880   0.763   1.330   3.050
 1704WAT      O 6881   3.387   3.179   0.827
 1704WAT     H1 6882   3.377   3.153   0.735
 1704WAT     H2 6883   3.310   3.142   0.870
 1704WAT    EPW 6884   3.375   3.171   0.820
 1705WAT      O 6885   2.009   1.431   0.139
 1705WAT     H1 6886   2.043   1.346   0.167
 1705WAT     H2 6887   1.917   1.430   0.166
 1705WAT    EPW 6888   2.001   1.420   0.146
 1706WAT      O 6889   1.407   0.679   2.065
 1706WAT     H1 6890   1.434   0.770   2.055
 1706WAT     H2 6891   1.417   0.641   1.977
 1706WAT    EPW 6892   1.412   0.686   2.052
 1707WAT      O 6893   1.242   2.277   1.168
 1707WAT     H1 6894   1.202   2.316   1.090
 1707WAT     H2 6895   1.271   2.352   1.220
 1707WAT    EPW 6896   1.240   2.292   1.165
 1708WAT      O 6897   2.140   1.246   3.772
 1708WAT     H1 6898   2.063   1.236   3.827
 1708WAT     H2 6899   2.104   1.264   3.685
 1708WAT    EPW 6900   2.125   1.247   3.767
 1709WAT      O 6901   2.899   2.517   1.251
 1709WAT     H1 6902   2.818   2.470   1.270
 1709WAT     H2 6903   2.967   2.450   1.251
 1709WAT    EPW 6904   2.898   2.502   1.254
 1710WAT      O 6905   3.438   2.625   2.593
 1710WAT     H1 6906   3.519   2.672   2.575
 1710WAT     H2 6907   3.420   2.643   2.686
 1710WAT    EPW 6908   3.446   2.634   2.603
 1711WAT      O 6909   1.123   2.210   0.681
 1711WAT     H1 6910   1.141   2.119   0.656
 1711WAT     H2 6911   1.190   2.261   0.634
 1711WAT    EPW 6912   1.134   2.205   0.671
 1712WAT      O 6913   1.774   0.825   1.985
 1712WAT     H1 6914   1.817   0.876   2.054
 1712WAT     H2 6915   1.760   0.887   1.914
 1712WAT    EPW 6916   1.778   0.840   1.985
 1713WAT      O 6917   1.541   2.698   2.411
 1713WAT     H1 6918   1.624   2.657   2.386
 1713WAT     H2 6919   1.564   2.788   2.433
 1713WAT    EPW 6920   1.555   2.704   2.410
 1714WAT      O 6921   0.198   3.772   3.476
 1714WAT     H1 6922   0.218   3.706   3.543
 1714WAT     H2 6923   0.265   3.840   3.489
 1714WAT    EPW 6924   0.210   3.772   3.487
 1715WAT      O 6925   0.742   1.293   1.908
 1715WAT     H1 6926   0.685   1.278   1.983
 1715WAT     H2 6927   0.776   1.382   1.921
 1715WAT    EPW 6928   0.739   1.303   1.920
 1716WAT      O 6929   0.512   1.174   2.040
 1716WAT     H1 6930   0.521   1.195   2.133
 1716WAT     H2 6931   0.418   1.182   2.022
 1716WAT    EPW 6932   0.501   1.178   2.050
 1717WAT      O 6933   0.891   2.975   1.035
 1717WAT     H1 6934   0.828   2.903   1.042
 1717WAT     H2 6935   0.973   2.939   1.070
 1717WAT    EPW 6936   0.894   2.961   1.040
 1718WAT      O 6937   2.963   1.936   2.293
 1718WAT     H1 6938   2.896   1.982   2.343
 1718WAT     H2 6939   3.028   2.003   2.272
 1718WAT    EPW 6940   2.963   1.951   2.297
 1719WAT      O 6941   0.359   1.195   0.111
 1719WAT     H1 6942   0.349   1.288   0.131
 1719WAT     H2 6943   0.451   1.177   0.130
 1719WAT    EPW 6944   0.370   1.205   0.116
 1720WAT      O 6945   1.837   3.578   1.985
 1720WAT     H1 6946   1.890   3.523   1.928
 1720WAT     H2 6947   1.797   3.642   1.925
 1720WAT    EPW 6948   1.839   3.579   1.969
 1721WAT      O 6949   3.118   2.338   2.890
 1721WAT     H1 6950   3.165   2.347   2.807
 1721WAT     H2 6951   3.187   2.318   2.954
 1721WAT    EPW 6952   3.134   2.336   2.888
 1722WAT      O 6953   1.923   1.969   0.581
 1722WAT     H1 6954   1.894   1.909   0.513
 1722WAT     H2 6955   1.871   2.048   0.568
 1722WAT    EPW 6956   1.913   1.972   0.570
 1723WAT      O 6957   0.850   2.761   0.622
 1723WAT     H1 6958   0.850   2.811   0.540
 1723WAT     H2 6959   0.789   2.808   0.679
 1723WAT    EPW 6960   0.842   2.774   0.619
 1724WAT      O 6961   0.876   3.605   1.513
 1724WAT     H1 6962   0.815   3.532   1.526
 1724WAT     H2 6963   0.819   3.681   1.497
 1724WAT    EPW 6964   0.860   3.606   1.513
 1725WAT      O 6965   1.911   2.007   0.001
 1725WAT     H1 6966   1.967   2.022   0.077
 1725WAT     H2 6967   1.940   1.923  -0.034
 1725WAT    EPW 6968   1.922   1.998   0.006
 1726WAT      O 6969   3.180   2.942   1.236
 1726WAT     H1 6970   3.171   3.018   1.178
 1726WAT     H2 6971   3.173   2.978   1.324
 1726WAT    EPW 6972   3.178   2.956   1.240
 1727WAT      O 6973   0.454   3.287   2.918
 1727WAT     H1 6974   0.513   3.330   2.856
 1727WAT     H2 6975   0.462   3.339   2.998
 1727WAT    EPW 6976   0.463   3.299   2.921
 1728WAT      O 6977   2.640   2.231   1.834
 1728WAT     H1 6978   2.646   2.267   1.922
 1728WAT     H2 6979   2.599   2.301   1.782
 1728WAT    EPW 6980   2.635   2.245   1.839
 1729WAT      O 6981   2.638   2.387   2.753
 1729WAT     H1 6982   2.629   2.459   2.691
 1729WAT     H2 6983   2.596   2.418   2.833
 1729WAT    EPW 6984   2.631   2.400   2.755
 1730WAT      O 6985   3.054   4.009   0.357
 1730WAT     H1 6986   2.980   4.025   0.416
 1730WAT     H2 6987   3.092   4.096   0.343
 1730WAT    EPW 6988   3.049   4.023   0.363
 1731WAT      O 6989   2.943   2.694   2.884
 1731WAT     H1 6990   3.005   2.709   2.813
 1731WAT     H2 6991   2.967   2.608   2.919
 1731WAT    EPW 6992   2.954   2.685   2.880
 1732WAT      O 6993   3.780   3.690   2.112
 1732WAT     H1 6994   3.757   3.605   2.150
 1732WAT     H2 6995   3.706   3.747   2.131
 1732WAT    EPW 6996   3.767   3.686   2.119
 1733WAT      O 6997   3.267   0.368   3.059
 1733WAT     H1 6998   3.316   0.300   3.011
 1733WAT     H2 6999   3.332   0.437   3.074
 1733WAT    EPW 7000   3.282   0.368   3.054
 1734WAT      O 7001   3.132   2.647   2.370
 1734WAT     H1 7002   3.126   2.724   2.427
 1734WAT     H2 7003   3.222   2.648   2.338
 1734WAT    EPW 7004   3.143   2.657   2.373
 1735WAT      O 7005   1.426   0.551   1.762
 1735WAT     H1 7006   1.474   0.473   1.787
 1735WAT     H2 7007   1.469   0.580   1.681
 1735WAT    EPW 7008   1.438   0.545   1.754
 1736WAT      O 7009   1.756   2.718   3.996
 1736WAT     H1 7010   1.699   2.793   3.982
 1736WAT     H2 7011   1.741   2.693   4.088
 1736WAT    EPW 7012   1.747   2.725   4.007
 1737WAT      O 7013   3.675   2.300   0.959
 1737WAT     H1 7014   3.728   2.275   0.883
 1737WAT     H2 7015   3.703   2.240   1.029
 1737WAT    EPW 7016   3.686   2.289   0.958
 1738WAT      O 7017   1.459   0.285   0.909
 1738WAT     H1 7018   1.494   0.374   0.914
 1738WAT     H2 7019   1.449   0.258   1.001
 1738WAT    EPW 7020   1.462   0.293   0.922
 1739WAT      O 7021   0.846   2.334   3.964
 1739WAT     H1 7022   0.903   2.269   3.923
 1739WAT     H2 7023   0.863   2.414   3.914
 1739WAT    EPW 7024   0.856   2.336   3.952
 1740WAT      O 7025   2.832   0.136   2.852
 1740WAT     H1 7026   2.845   0.074   2.924
 1740WAT     H2 7027   2.877   0.216   2.881
 1740WAT    EPW 7028   2.840   0.138   2.866
 1741WAT      O 7029   1.998   0.784   0.207
 1741WAT     H1 7030   1.977   0.847   0.275
 1741WAT     H2 7031   1.913   0.744   0.184
 1741WAT    EPW 7032   1.984   0.787   0.213
 1742WAT      O 7033   2.890   0.558   3.167
 1742WAT     H1 7034   2.804   0.516   3.169
 1742WAT     H2 7035   2.871   0.649   3.141
 1742WAT    EPW 7036   2.876   0.565   3.164
 1743WAT      O 7037   1.884   0.478   1.233
 1743WAT     H1 7038   1.964   0.472   1.286
 1743WAT     H2 7039   1.879   0.394   1.187
 1743WAT    EPW 7040   1.894   0.466   1.234
 1744WAT      O 7041   2.423   3.881   0.807
 1744WAT     H1 7042   2.413   3.786   0.805
 1744WAT     H2 7043   2.517   3.895   0.814
 1744WAT    EPW 7044   2.434   3.870   0.807
 1745WAT      O 7045   1.841   3.762   1.739
 1745WAT     H1 7046   1.858   3.854   1.715
 1745WAT     H2 7047   1.756   3.742   1.700
 1745WAT    EPW 7048   1.832   3.772   1.730
 1746WAT      O 7049   0.697   1.446   3.903
 1746WAT     H1 7050   0.766   1.511   3.892
 1746WAT     H2 7051   0.671   1.422   3.813
 1746WAT    EPW 7052   0.702   1.451   3.889
 1747WAT      O 7053   3.633   3.599   0.114
 1747WAT     H1 7054   3.548   3.580   0.074
 1747WAT     H2 7055   3.616   3.674   0.172
 1747WAT    EPW 7056   3.619   3.606   0.117
 1748WAT      O 7057   0.867   1.527   1.139
 1748WAT     H1 7058   0.939   1.568   1.187
 1748WAT     H2 7059   0.906   1.499   1.056
 1748WAT    EPW 7060   0.882   1.529   1.134
 1749WAT      O 7061   2.080   0.546   3.391
 1749WAT     H1 7062   2.103   0.516   3.479
 1749WAT     H2 7063   2.139   0.497   3.333
 1749WAT    EPW 7064   2.091   0.535   3.395
 1750WAT      O 7065   3.614   0.912   3.109
 1750WAT     H1 7066   3.533   0.933   3.062
 1750WAT     H2 7067   3.666   0.862   3.045
 1750WAT    EPW 7068   3.610   0.908   3.094
 1751WAT      O 7069   2.452   0.676   3.667
 1751WAT     H1 7070   2.470   0.674   3.573
 1751WAT     H2 7071   2.420   0.588   3.687
 1751WAT    EPW 7072   2.450   0.664   3.657
 1752WAT      O 7073   1.413   0.239   1.187
 1752WAT     H1 7074   1.376   0.328   1.191
 1752WAT     H2 7075   1.460   0.229   1.270
 1752WAT    EPW 7076   1.415   0.250   1.198
 1753WAT      O 7077   3.561   1.946   0.042
 1753WAT     H1 7078   3.650   1.967   0.068
 1753WAT     H2 7079   3.507   2.010   0.089
 1753WAT    EPW 7080   3.565   1.957   0.051
 1754WAT      O 7081   0.540   0.304   2.292
 1754WAT     H1 7082   0.556   0.228   2.349
 1754WAT     H2 7083   0.445   0.315   2.292
 1754WAT    EPW 7084   0.530   0.295   2.299
 1755WAT      O 7085   2.507   0.405   0.297
 1755WAT     H1 7086   2.508   0.499   0.281
 1755WAT     H2 7087   2.424   0.389   0.341
 1755WAT    EPW 7088   2.496   0.415   0.301
 1756WAT      O 7089   1.101   3.389   3.373
 1756WAT     H1 7090   1.021   3.385   3.425
 1756WAT     H2 7091   1.170   3.361   3.434
 1756WAT    EPW 7092   1.100   3.385   3.388
 1757WAT      O 7093   0.034   0.060   1.108
 1757WAT     H1 7094   0.099   0.110   1.158
 1757WAT     H2 7095   0.029   0.104   1.023
 1757WAT    EPW 7096   0.042   0.073   1.104
 1758WAT      O 7097   0.093   0.019   3.950
 1758WAT     H1 7098   0.018   0.076   3.968
 1758WAT     H2 7099   0.078  -0.059   4.004
 1758WAT    EPW 7100   0.081   0.016   3.960
 1759WAT      O 7101   2.216   3.238   1.419
 1759WAT     H1 7102   2.218   3.198   1.332
 1759WAT     H2 7103   2.231   3.331   1.403
 1759WAT    EPW 7104   2.218   3.245   1.405
 1760WAT      O 7105   2.863   3.055   2.685
 1760WAT     H1 7106   2.821   3.055   2.771
 1760WAT     H2 7107   2.802   3.009   2.628
 1760WAT    EPW 7108   2.850   3.049   2.689
 1761WAT      O 7109   3.339   3.895   3.220
 1761WAT     H1 7110   3.390   3.974   3.201
 1761WAT     H2 7111   3.248   3.922   3.206
 1761WAT    EPW 7112   3.334   3.909   3.215
 1762WAT      O 7113   1.931   4.049   2.212
 1762WAT     H1 7114   1.943   3.964   2.170
 1762WAT     H2 7115   1.950   4.033   2.304
 1762WAT    EPW 7116   1.935   4.036   2.218
 1763WAT      O 7117   0.061   0.634   3.194
 1763WAT     H1 7118   0.148   0.595   3.189
 1763WAT     H2 7119   0.028   0.632   3.104
 1763WAT    EPW 7120   0.068   0.629   3.181
 1764WAT      O 7121   3.175   2.617   1.385
 1764WAT     H1 7122   3.221   2.535   1.400
 1764WAT     H2 7123   3.137   2.639   1.470
 1764WAT    EPW 7124   3.176   2.609   1.398
 1765WAT      O 7125   0.856   2.350   2.014
 1765WAT     H1 7126   0.933   2.369   1.960
 1765WAT     H2 7127   0.891   2.335   2.102
 1765WAT    EPW 7128   0.871   2.350   2.018
 1766WAT      O 7129   1.587   0.305   1.749
 1766WAT     H1 7130   1.629   0.242   1.690
 1766WAT     H2 7131   1.498   0.270   1.761
 1766WAT    EPW 7132   1.580   0.292   1.743
 1767WAT      O 7133   1.691   1.803   3.363
 1767WAT     H1 7134   1.756   1.854   3.411
 1767WAT     H2 7135   1.742   1.746   3.306
 1767WAT    EPW 7136   1.706   1.802   3.361
 1768WAT      O 7137   1.785   1.495   0.454
 1768WAT     H1 7138   1.842   1.528   0.524
 1768WAT     H2 7139   1.698   1.493   0.493
 1768WAT    EPW 7140   1.781   1.499   0.468
 1769WAT      O 7141   0.702   3.877   3.595
 1769WAT     H1 7142   0.670   3.852   3.682
 1769WAT     H2 7143   0.779   3.821   3.581
 1769WAT    EPW 7144   0.708   3.866   3.605
 1770WAT      O 7145   1.193   0.291   3.524
 1770WAT     H1 7146   1.202   0.386   3.516
 1770WAT     H2 7147   1.099   0.278   3.539
 1770WAT    EPW 7148   1.182   0.302   3.525
 1771WAT      O 7149   1.756   0.695   0.519
 1771WAT     H1 7150   1.718   0.754   0.454
 1771WAT     H2 7151   1.741   0.740   0.603
 1771WAT    EPW 7152   1.749   0.709   0.521
 1772WAT      O 7153   0.571   2.206   2.672
 1772WAT     H1 7154   0.646   2.147   2.677
 1772WAT     H2 7155   0.497   2.153   2.699
 1772WAT    EPW 7156   0.571   2.191   2.676
 1773WAT      O 7157   2.204   2.639   2.330
 1773WAT     H1 7158   2.119   2.619   2.370
 1773WAT     H2 7159   2.266   2.630   2.402
 1773WAT    EPW 7160   2.201   2.635   2.345
 1774WAT      O 7161   1.295   0.471   2.832
 1774WAT     H1 7162   1.318   0.384   2.866
 1774WAT     H2 7163   1.378   0.519   2.832
 1774WAT    EPW 7164   1.309   0.465   2.837
 1775WAT      O 7165   3.385   4.095   1.081
 1775WAT     H1 7166   3.433   4.022   1.040
 1775WAT     H2 7167   3.301   4.057   1.107
 1775WAT    EPW 7168   3.381   4.080   1.079
 1776WAT      O 7169   2.732   3.473   1.651
 1776WAT     H1 7170   2.683   3.415   1.592
 1776WAT     H2 7171   2.795   3.517   1.594
 1776WAT    EPW 7172   2.733   3.471   1.635
 1777WAT      O 7173   2.139   2.822   1.019
 1777WAT     H1 7174   2.071   2.833   0.952
 1777WAT     H2 7175   2.104   2.868   1.096
 1777WAT    EPW 7176   2.125   2.830   1.020
 1778WAT      O 7177   0.614   1.644   1.071
 1778WAT     H1 7178   0.596   1.588   0.995
 1778WAT     H2 7179   0.703   1.676   1.057
 1778WAT    EPW 7180   0.624   1.641   1.059
 1779WAT      O 7181   2.199   0.846   2.161
 1779WAT     H1 7182   2.197   0.791   2.083
 1779WAT     H2 7183   2.250   0.923   2.136
 1779WAT    EPW 7184   2.205   0.849   2.148
 1780WAT      O 7185   2.184   0.970   3.849
 1780WAT     H1 7186   2.278   0.955   3.856
 1780WAT     H2 7187   2.177   1.047   3.792
 1780WAT    EPW 7188   2.196   0.978   3.842
 1781WAT      O 7189   3.155   3.363   0.538
 1781WAT     H1 7190   3.211   3.289   0.513
 1781WAT     H2 7191   3.160   3.365   0.634
 1781WAT    EPW 7192   3.163   3.353   0.547
 1782WAT      O 7193   3.178   1.210   3.190
 1782WAT     H1 7194   3.161   1.196   3.283
 1782WAT     H2 7195   3.110   1.271   3.162
 1782WAT    EPW 7196   3.167   1.216   3.199
 1783WAT      O 7197   2.935   1.325   3.624
 1783WAT     H1 7198   2.848   1.328   3.584
 1783WAT     H2 7199   2.931   1.389   3.695
 1783WAT    EPW 7200   2.923   1.334   3.628
 1784WAT      O 7201   0.184   1.234   3.866
 1784WAT     H1 7202   0.242   1.306   3.891
 1784WAT     H2 7203   0.098   1.275   3.853
 1784WAT    EPW 7204   0.180   1.249   3.868
 1785WAT      O 7205   0.676   2.509   0.721
 1785WAT     H1 7206   0.680   2.597   0.685
 1785WAT     H2 7207   0.762   2.471   0.703
 1785WAT    EPW 7208   0.688   2.515   0.714
 1786WAT      O 7209   3.231   3.549   3.312
 1786WAT     H1 7210   3.251   3.518   3.401
 1786WAT     H2 7211   3.156   3.607   3.323
 1786WAT    EPW 7212   3.224   3.553   3.326
 1787WAT      O 7213   2.303   3.806   2.370
 1787WAT     H1 7214   2.341   3.752   2.440
 1787WAT     H2 7215   2.212   3.817   2.395
 1787WAT    EPW 7216   2.296   3.800   2.382
 1788WAT      O 7217   1.607   0.160   3.238
 1788WAT     H1 7218   1.513   0.152   3.252
 1788WAT     H2 7219   1.637   0.218   3.309
 1788WAT    EPW 7220   1.599   0.167   3.249
 1789WAT      O 7221   0.343   2.559   1.252
 1789WAT     H1 7222   0.418   2.500   1.247
 1789WAT     H2 7223   0.381   2.645   1.268
 1789WAT    EPW 7224   0.358   2.562   1.253
 1790WAT      O 7225   3.534   1.806   2.167
 1790WAT     H1 7226   3.544   1.867   2.240
 1790WAT     H2 7227   3.512   1.723   2.208
 1790WAT    EPW 7228   3.532   1.803   2.182
 1791WAT      O 7229   0.890   1.650   1.911
 1791WAT     H1 7230   0.838   1.705   1.852
 1791WAT     H2 7231   0.964   1.705   1.936
 1791WAT    EPW 7232   0.893   1.665   1.907
 1792WAT      O 7233   1.363   0.807   0.369
 1792WAT     H1 7234   1.357   0.801   0.273
 1792WAT     H2 7235   1.455   0.829   0.385
 1792WAT    EPW 7236   1.374   0.809   0.358
 1793WAT      O 7237   1.155   2.041   2.505
 1793WAT     H1 7238   1.250   2.043   2.521
 1793WAT     H2 7239   1.146   2.045   2.410
 1793WAT    EPW 7240   1.166   2.041   2.495
 1794WAT      O 7241   1.006   0.064   2.857
 1794WAT     H1 7242   1.013   0.086   2.950
 1794WAT     H2 7243   1.046   0.138   2.811
 1794WAT    EPW 7244   1.012   0.076   2.863
 1795WAT      O 7245   2.931   4.019   2.533
 1795WAT     H1 7246   2.872   3.978   2.596
 1795WAT     H2 7247   3.010   4.039   2.583
 1795WAT    EPW 7248   2.934   4.016   2.548
 1796WAT      O 7249   2.505   1.042   0.419
 1796WAT     H1 7250   2.417   1.031   0.455
 1796WAT     H2 7251   2.492   1.039   0.324
 1796WAT    EPW 7252   2.492   1.041   0.411
 1797WAT      O 7253   0.866   1.057   3.792
 1797WAT     H1 7254   0.946   1.006   3.780
 1797WAT     H2 7255   0.796   0.999   3.761
 1797WAT    EPW 7256   0.867   1.043   3.786
 1798WAT      O 7257   1.326   1.512   3.331
 1798WAT     H1 7258   1.300   1.602   3.350
 1798WAT     H2 7259   1.247   1.470   3.298
 1798WAT    EPW 7260   1.312   1.518   3.329
 1799WAT      O 7261   1.542   1.147   1.641
 1799WAT     H1 7262   1.476   1.195   1.692
 1799WAT     H2 7263   1.495   1.118   1.563
 1799WAT    EPW 7264   1.527   1.149   1.638
 1800WAT      O 7265   1.498   3.631   3.393
 1800WAT     H1 7266   1.450   3.551   3.413
 1800WAT     H2 7267   1.434   3.701   3.403
 1800WAT    EPW 7268   1.484   3.629   3.397
 1801WAT      O 7269   3.723   0.246   1.834
 1801WAT     H1 7270   3.718   0.175   1.898
 1801WAT     H2 7271   3.791   0.304   1.868
 1801WAT    EPW 7272   3.731   0.245   1.847
 1802WAT      O 7273   3.692   2.716   2.495
 1802WAT     H1 7274   3.728   2.725   2.583
 1802WAT     H2 7275   3.768   2.696   2.440
 1802WAT    EPW 7276   3.706   2.715   2.499
 1803WAT      O 7277   1.238   0.456   2.561
 1803WAT     H1 7278   1.234   0.464   2.657
 1803WAT     H2 7279   1.301   0.523   2.534
 1803WAT    EPW 7280   1.246   0.466   2.570
 1804WAT      O 7281   0.254   2.718   0.354
 1804WAT     H1 7282   0.300   2.797   0.326
 1804WAT     H2 7283   0.227   2.737   0.444
 1804WAT    EPW 7284   0.256   2.731   0.362
 1805WAT      O 7285   1.227   0.382   2.040
 1805WAT     H1 7286   1.169   0.357   2.111
 1805WAT     H2 7287   1.210   0.475   2.026
 1805WAT    EPW 7288   1.217   0.391   2.047
 1806WAT      O 7289   1.574   2.467   3.970
 1806WAT     H1 7290   1.620   2.551   3.964
 1806WAT     H2 7291   1.551   2.445   3.880
 1806WAT    EPW 7292   1.577   2.475   3.958
 1807WAT      O 7293   3.034   0.741   0.115
 1807WAT     H1 7294   3.090   0.665   0.097
 1807WAT     H2 7295   3.093   0.805   0.155
 1807WAT    EPW 7296   3.049   0.739   0.118
 1808WAT      O 7297   3.178   2.344   1.589
 1808WAT     H1 7298   3.231   2.265   1.599
 1808WAT     H2 7299   3.235   2.414   1.620
 1808WAT    EPW 7300   3.193   2.343   1.594
 1809WAT      O 7301   3.563   3.843   0.964
 1809WAT     H1 7302   3.488   3.813   1.014
 1809WAT     H2 7303   3.629   3.866   1.030
 1809WAT    EPW 7304   3.562   3.842   0.979
 1810WAT      O 7305   2.745   0.524   1.998
 1810WAT     H1 7306   2.765   0.600   2.052
 1810WAT     H2 7307   2.677   0.555   1.938
 1810WAT    EPW 7308   2.739   0.538   1.997
 1811WAT      O 7309   2.376   0.019   3.529
 1811WAT     H1 7310   2.459  -0.023   3.555
 1811WAT     H2 7311   2.322  -0.054   3.498
 1811WAT    EPW 7312   2.380   0.004   3.528
 1812WAT      O 7313   2.078   3.052   3.731
 1812WAT     H1 7314   2.006   3.010   3.685
 1812WAT     H2 7315   2.051   3.143   3.740
 1812WAT    EPW 7316   2.065   3.059   3.726
 1813WAT      O 7317   1.013   1.658   3.928
 1813WAT     H1 7318   1.098   1.698   3.914
 1813WAT     H2 7319   1.021   1.614   4.013
 1813WAT    EPW 7320   1.025   1.657   3.937
 1814WAT      O 7321   1.924   1.353   3.922
 1814WAT     H1 7322   1.996   1.355   3.985
 1814WAT     H2 7323   1.846   1.334   3.974
 1814WAT    EPW 7324   1.923   1.350   3.937
 1815WAT      O 7325   2.616   1.664   2.827
 1815WAT     H1 7326   2.565   1.702   2.899
 1815WAT     H2 7327   2.706   1.666   2.858
 1815WAT    EPW 7328   2.621   1.669   2.841
 1816WAT      O 7329   2.527   0.503   0.576
 1816WAT     H1 7330   2.523   0.436   0.508
 1816WAT     H2 7331   2.502   0.584   0.531
 1816WAT    EPW 7332   2.523   0.505   0.561
 1817WAT      O 7333   2.429   0.947   3.525
 1817WAT     H1 7334   2.401   0.905   3.444
 1817WAT     H2 7335   2.373   1.024   3.534
 1817WAT    EPW 7336   2.418   0.951   3.516
 1818WAT      O 7337   1.357   2.401   2.418
 1818WAT     H1 7338   1.383   2.490   2.392
 1818WAT     H2 7339   1.264   2.409   2.439
 1818WAT    EPW 7340   1.348   2.414   2.417
 1819WAT      O 7341   0.712   3.567   3.651
 1819WAT     H1 7342   0.789   3.530   3.693
 1819WAT     H2 7343   0.744   3.604   3.569
 1819WAT    EPW 7344   0.726   3.567   3.646
 1820WAT      O 7345   2.498   1.331   2.526
 1820WAT     H1 7346   2.581   1.378   2.516
 1820WAT     H2 7347   2.470   1.313   2.436
 1820WAT    EPW 7348   2.506   1.335   2.513
 1821WAT      O 7349   0.198   0.374   1.948
 1821WAT     H1 7350   0.290   0.361   1.922
 1821WAT     H2 7351   0.203   0.403   2.039
 1821WAT    EPW 7352   0.211   0.376   1.956
 1822WAT      O 7353   2.659   1.640   1.813
 1822WAT     H1 7354   2.683   1.729   1.788
 1822WAT     H2 7355   2.704   1.584   1.749
 1822WAT    EPW 7356   2.668   1.644   1.802
 1823WAT      O 7357   3.533   0.839   0.833
 1823WAT     H1 7358   3.609   0.796   0.793
 1823WAT     H2 7359   3.460   0.816   0.775
 1823WAT    EPW 7360   3.533   0.830   0.820
 1824WAT      O 7361   1.113   4.091   2.076
 1824WAT     H1 7362   1.152   4.015   2.032
 1824WAT     H2 7363   1.188   4.142   2.105
 1824WAT    EPW 7364   1.128   4.087   2.074
 1825WAT      O 7365   2.646   0.677   2.266
 1825WAT     H1 7366   2.704   0.754   2.263
 1825WAT     H2 7367   2.594   0.690   2.346
 1825WAT    EPW 7368   2.647   0.689   2.276
 1826WAT      O 7369   0.212   4.144   0.145
 1826WAT     H1 7370   0.232   4.098   0.226
 1826WAT     H2 7371   0.231   4.080   0.076
 1826WAT    EPW 7372   0.217   4.129   0.146
 1827WAT      O 7373   1.792   0.047   1.939
 1827WAT     H1 7374   1.853   0.105   1.894
 1827WAT     H2 7375   1.827   0.040   2.028
 1827WAT    EPW 7376   1.804   0.054   1.945
 1828WAT      O 7377   1.972   3.367   1.751
 1828WAT     H1 7378   1.917   3.312   1.694
 1828WAT     H2 7379   2.060   3.331   1.742
 1828WAT    EPW 7380   1.976   3.355   1.742
 1829WAT      O 7381   1.402   2.916   2.858
 1829WAT     H1 7382   1.320   2.878   2.825
 1829WAT     H2 7383   1.375   2.978   2.926
 1829WAT    EPW 7384   1.388   2.919   2.862
 1830WAT      O 7385   1.698   1.416   1.123
 1830WAT     H1 7386   1.792   1.403   1.135
 1830WAT     H2 7387   1.685   1.510   1.139
 1830WAT    EPW 7388   1.709   1.427   1.127
 1831WAT      O 7389   0.349   4.101   1.368
 1831WAT     H1 7390   0.286   4.170   1.388
 1831WAT     H2 7391   0.340   4.086   1.274
 1831WAT    EPW 7392   0.339   4.108   1.359
 1832WAT      O 7393   1.740   1.997   3.097
 1832WAT     H1 7394   1.729   1.904   3.077
 1832WAT     H2 7395   1.764   2.037   3.013
 1832WAT    EPW 7396   1.742   1.990   3.083
 1833WAT      O 7397   3.742   2.209   1.596
 1833WAT     H1 7398   3.745   2.223   1.691
 1833WAT     H2 7399   3.673   2.144   1.584
 1833WAT    EPW 7400   3.733   2.203   1.607
 1834WAT      O 7401   1.072   1.157   1.907
 1834WAT     H1 7402   0.980   1.133   1.907
 1834WAT     H2 7403   1.114   1.091   1.851
 1834WAT    EPW 7404   1.066   1.145   1.900
 1835WAT      O 7405   3.669   0.752   1.285
 1835WAT     H1 7406   3.695   0.707   1.365
 1835WAT     H2 7407   3.751   0.768   1.239
 1835WAT    EPW 7408   3.683   0.748   1.289
 1836WAT      O 7409   3.518   2.818   1.892
 1836WAT     H1 7410   3.611   2.843   1.886
 1836WAT     H2 7411   3.482   2.879   1.957
 1836WAT    EPW 7412   3.526   2.830   1.900
 1837WAT      O 7413   1.529   0.273   1.435
 1837WAT     H1 7414   1.613   0.233   1.458
 1837WAT     H2 7415   1.463   0.211   1.466
 1837WAT    EPW 7416   1.532   0.260   1.442
 1838WAT      O 7417   1.019   1.292   2.513
 1838WAT     H1 7418   1.006   1.300   2.607
 1838WAT     H2 7419   1.112   1.310   2.499
 1838WAT    EPW 7420   1.029   1.295   2.524
 1839WAT      O 7421   3.045   0.039   3.784
 1839WAT     H1 7422   2.959   0.066   3.753
 1839WAT     H2 7423   3.091   0.007   3.706
 1839WAT    EPW 7424   3.040   0.038   3.770
 1840WAT      O 7425   2.490   2.844   3.298
 1840WAT     H1 7426   2.406   2.798   3.301
 1840WAT     H2 7427   2.532   2.813   3.218
 1840WAT    EPW 7428   2.485   2.834   3.288
 1841WAT      O 7429   1.125   0.951   3.832
 1841WAT     H1 7430   1.147   0.972   3.923
 1841WAT     H2 7431   1.200   0.984   3.782
 1841WAT    EPW 7432   1.138   0.958   3.837
 1842WAT      O 7433   3.598   0.701   1.711
 1842WAT     H1 7434   3.506   0.713   1.687
 1842WAT     H2 7435   3.611   0.607   1.711
 1842WAT    EPW 7436   3.588   0.690   1.708
 1843WAT      O 7437   2.817   0.254   2.040
 1843WAT     H1 7438   2.827   0.228   1.948
 1843WAT     H2 7439   2.799   0.348   2.037
 1843WAT    EPW 7440   2.816   0.263   2.027
 1844WAT      O 7441   2.672   1.429   3.095
 1844WAT     H1 7442   2.759   1.395   3.115
 1844WAT     H2 7443   2.652   1.397   3.007
 1844WAT    EPW 7444   2.681   1.421   3.086
 1845WAT      O 7445   0.948   2.044   0.313
 1845WAT     H1 7446   1.032   2.089   0.313
 1845WAT     H2 7447   0.885   2.112   0.339
 1845WAT    EPW 7448   0.950   2.059   0.316
 1846WAT      O 7449   0.600   1.327   0.399
 1846WAT     H1 7450   0.507   1.349   0.397
 1846WAT     H2 7451   0.631   1.345   0.310
 1846WAT    EPW 7452   0.592   1.333   0.387
 1847WAT      O 7453   2.734   0.879   0.548
 1847WAT     H1 7454   2.714   0.829   0.627
 1847WAT     H2 7455   2.744   0.969   0.579
 1847WAT    EPW 7456   2.733   0.884   0.562
 1848WAT      O 7457   0.215   4.013   0.383
 1848WAT     H1 7458   0.231   3.919   0.387
 1848WAT     H2 7459   0.121   4.022   0.399
 1848WAT    EPW 7460   0.204   4.002   0.385
 1849WAT      O 7461   2.820   2.999   0.260
 1849WAT     H1 7462   2.907   3.024   0.293
 1849WAT     H2 7463   2.813   3.043   0.176
 1849WAT    EPW 7464   2.831   3.008   0.254
 1850WAT      O 7465   3.576   1.597   3.658
 1850WAT     H1 7466   3.529   1.678   3.680
 1850WAT     H2 7467   3.507   1.534   3.637
 1850WAT    EPW 7468   3.561   1.599   3.658
 1851WAT      O 7469   3.494   0.669   1.071
 1851WAT     H1 7470   3.529   0.724   1.001
 1851WAT     H2 7471   3.557   0.680   1.143
 1851WAT    EPW 7472   3.507   0.678   1.071
 1852WAT      O 7473   2.122   2.598   3.628
 1852WAT     H1 7474   2.124   2.525   3.691
 1852WAT     H2 7475   2.211   2.634   3.630
 1852WAT    EPW 7476   2.134   2.593   3.636
 1853WAT      O 7477   0.800   3.579   3.382
 1853WAT     H1 7478   0.873   3.624   3.425
 1853WAT     H2 7479   0.740   3.649   3.355
 1853WAT    EPW 7480   0.801   3.594   3.384
 1854WAT      O 7481   0.720   1.201   0.872
 1854WAT     H1 7482   0.797   1.254   0.892
 1854WAT     H2 7483   0.752   1.133   0.813
 1854WAT    EPW 7484   0.735   1.199   0.867
 1855WAT      O 7485   3.478   0.624   3.648
 1855WAT     H1 7486   3.479   0.604   3.554
 1855WAT     H2 7487   3.470   0.719   3.651
 1855WAT    EPW 7488   3.477   0.634   3.636
 1856WAT      O 7489   3.568   3.732   3.502
 1856WAT     H1 7490   3.609   3.815   3.480
 1856WAT     H2 7491   3.585   3.719   3.595
 1856WAT    EPW 7492   3.575   3.741   3.511
 1857WAT      O 7493   0.728   0.387   2.925
 1857WAT     H1 7494   0.734   0.309   2.981
 1857WAT     H2 7495   0.803   0.441   2.950
 1857WAT    EPW 7496   0.738   0.383   2.936
 1858WAT      O 7497   3.202   3.632   1.757
 1858WAT     H1 7498   3.190   3.722   1.785
 1858WAT     H2 7499   3.203   3.581   1.838
 1858WAT    EPW 7500   3.201   3.637   1.771
 1859WAT      O 7501   1.739   0.976   1.721
 1859WAT     H1 7502   1.693   0.903   1.679
 1859WAT     H2 7503   1.679   1.050   1.710
 1859WAT    EPW 7504   1.725   0.976   1.714
 1860WAT      O 7505   2.299   3.096   2.703
 1860WAT     H1 7506   2.329   3.069   2.790
 1860WAT     H2 7507   2.374   3.141   2.664
 1860WAT    EPW 7508   2.313   3.098   2.709
 1861WAT      O 7509   0.751   3.826   2.832
 1861WAT     H1 7510   0.784   3.736   2.830
 1861WAT     H2 7511   0.763   3.854   2.922
 1861WAT    EPW 7512   0.757   3.817   2.843
 1862WAT      O 7513   3.412   2.998   1.084
 1862WAT     H1 7514   3.392   3.085   1.048
 1862WAT     H2 7515   3.341   2.981   1.145
 1862WAT    EPW 7516   3.400   3.007   1.087
 1863WAT      O 7517  -0.002   1.048   4.034
 1863WAT     H1 7518   0.052   1.116   3.995
 1863WAT     H2 7519   0.009   0.972   3.977
 1863WAT    EPW 7520   0.007   1.047   4.022
 1864WAT      O 7521   2.547   3.756   1.210
 1864WAT     H1 7522   2.475   3.784   1.153
 1864WAT     H2 7523   2.609   3.829   1.208
 1864WAT    EPW 7524   2.546   3.769   1.202
 1865WAT      O 7525   2.579   3.495   3.728
 1865WAT     H1 7526   2.484   3.481   3.731
 1865WAT     H2 7527   2.612   3.421   3.676
 1865WAT    EPW 7528   2.571   3.483   3.721
 1866WAT      O 7529   3.570   3.811   3.049
 1866WAT     H1 7530   3.505   3.869   3.089
 1866WAT     H2 7531   3.588   3.849   2.963
 1866WAT    EPW 7532   3.564   3.824   3.043
 1867WAT      O 7533   3.320   0.350   2.634
 1867WAT     H1 7534   3.237   0.389   2.662
 1867WAT     H2 7535   3.353   0.306   2.712
 1867WAT    EPW 7536   3.313   0.349   2.648
 1868WAT      O 7537   0.280   3.539   1.901
 1868WAT     H1 7538   0.219   3.609   1.878
 1868WAT     H2 7539   0.347   3.543   1.833
 1868WAT    EPW 7540   0.281   3.549   1.889
 1869WAT      O 7541   2.725   3.955   1.174
 1869WAT     H1 7542   2.672   4.021   1.219
 1869WAT     H2 7543   2.807   3.953   1.225
 1869WAT    EPW 7544   2.729   3.963   1.187
 1870WAT      O 7545   2.363   3.035   2.974
 1870WAT     H1 7546   2.435   2.984   2.936
 1870WAT     H2 7547   2.289   2.975   2.977
 1870WAT    EPW 7548   2.363   3.021   2.969
 1871WAT      O 7549   2.053   1.384   2.230
 1871WAT     H1 7550   1.992   1.375   2.303
 1871WAT     H2 7551   2.045   1.475   2.202
 1871WAT    EPW 7552   2.044   1.395   2.236
 1872WAT      O 7553   1.897   3.261   3.806
 1872WAT     H1 7554   1.802   3.271   3.807
 1872WAT     H2 7555   1.923   3.296   3.720
 1872WAT    EPW 7556   1.888   3.267   3.795
 1873WAT      O 7557   0.582   3.524   4.020
 1873WAT     H1 7558   0.546   3.467   3.953
 1873WAT     H2 7559   0.604   3.605   3.974
 1873WAT    EPW 7560   0.580   3.527   4.005
 1874WAT      O 7561   1.389   3.662   2.255
 1874WAT     H1 7562   1.457   3.651   2.189
 1874WAT     H2 7563   1.436   3.660   2.339
 1874WAT    EPW 7564   1.404   3.660   2.258
 1875WAT      O 7565   3.125   4.000   1.173
 1875WAT     H1 7566   3.086   4.083   1.147
 1875WAT     H2 7567   3.126   4.003   1.269
 1875WAT    EPW 7568   3.120   4.011   1.183
 1876WAT      O 7569   2.209   3.013   1.578
 1876WAT     H1 7570   2.117   2.996   1.562
 1876WAT     H2 7571   2.227   3.095   1.531
 1876WAT    EPW 7572   2.199   3.022   1.569
 1877WAT      O 7573   2.084   1.333   0.867
 1877WAT     H1 7574   2.113   1.409   0.817
 1877WAT     H2 7575   2.023   1.287   0.809
 1877WAT    EPW 7576   2.080   1.337   0.853
 1878WAT      O 7577   2.055   1.999   0.229
 1878WAT     H1 7578   2.130   2.057   0.226
 1878WAT     H2 7579   2.076   1.936   0.298
 1878WAT    EPW 7580   2.067   1.998   0.238
 1879WAT      O 7581   3.170   3.139   3.502
 1879WAT     H1 7582   3.218   3.125   3.421
 1879WAT     H2 7583   3.083   3.168   3.475
 1879WAT    EPW 7584   3.165   3.141   3.488
 1880WAT      O 7585   3.238   2.463   1.101
 1880WAT     H1 7586   3.203   2.428   1.183
 1880WAT     H2 7587   3.173   2.527   1.072
 1880WAT    EPW 7588   3.225   2.467   1.108
 1881WAT      O 7589   3.041   1.650   1.191
 1881WAT     H1 7590   3.032   1.618   1.281
 1881WAT     H2 7591   3.106   1.592   1.152
 1881WAT    EPW 7592   3.049   1.638   1.198
 1882WAT      O 7593   0.858   1.052   0.033
 1882WAT     H1 7594   0.780   1.091  -0.007
 1882WAT     H2 7595   0.885   0.984  -0.028
 1882WAT    EPW 7596   0.851   1.048   0.020
 1883WAT      O 7597   0.092   3.655   1.188
 1883WAT     H1 7598   0.089   3.751   1.197
 1883WAT     H2 7599   0.003   3.627   1.207
 1883WAT    EPW 7600   0.080   3.664   1.192
 1884WAT      O 7601   2.454   1.873   0.533
 1884WAT     H1 7602   2.506   1.946   0.497
 1884WAT     H2 7603   2.417   1.908   0.614
 1884WAT    EPW 7604   2.456   1.887   0.539
 1885WAT      O 7605   3.304   2.096   2.115
 1885WAT     H1 7606   3.321   2.166   2.053
 1885WAT     H2 7607   3.244   2.134   2.179
 1885WAT    EPW 7608   3.299   2.110   2.115
 1886WAT      O 7609   2.688   2.787   3.035
 1886WAT     H1 7610   2.776   2.781   2.997
 1886WAT     H2 7611   2.632   2.747   2.969
 1886WAT    EPW 7612   2.692   2.781   3.021
 1887WAT      O 7613   1.168   0.639   1.853
 1887WAT     H1 7614   1.128   0.676   1.775
 1887WAT     H2 7615   1.256   0.613   1.826
 1887WAT    EPW 7616   1.174   0.640   1.839
 1888WAT      O 7617   0.729   2.471   1.417
 1888WAT     H1 7618   0.751   2.487   1.509
 1888WAT     H2 7619   0.693   2.382   1.416
 1888WAT    EPW 7620   0.727   2.461   1.429
 1889WAT      O 7621   2.530   4.051   2.624
 1889WAT     H1 7622   2.449   4.061   2.673
 1889WAT     H2 7623   2.580   4.130   2.643
 1889WAT    EPW 7624   2.526   4.063   2.633
 1890WAT      O 7625   0.652   2.149   4.084
 1890WAT     H1 7626   0.643   2.232   4.037
 1890WAT     H2 7627   0.581   2.151   4.149
 1890WAT    EPW 7628   0.641   2.160   4.086
 1891WAT      O 7629   3.457   1.235   2.245
 1891WAT     H1 7630   3.370   1.256   2.279
 1891WAT     H2 7631   3.512   1.308   2.272
 1891WAT    EPW 7632   3.452   1.247   2.253
 1892WAT      O 7633   2.917   0.395   0.088
 1892WAT     H1 7634   2.909   0.377   0.181
 1892WAT     H2 7635   3.011   0.413   0.076
 1892WAT    EPW 7636   2.929   0.395   0.099
 1893WAT      O 7637   0.402   2.268   0.156
 1893WAT     H1 7638   0.456   2.292   0.231
 1893WAT     H2 7639   0.392   2.350   0.107
 1893WAT    EPW 7640   0.408   2.282   0.160
 1894WAT      O 7641   3.738   0.387   2.581
 1894WAT     H1 7642   3.690   0.433   2.513
 1894WAT     H2 7643   3.700   0.299   2.584
 1894WAT    EPW 7644   3.727   0.381   2.573
 1895WAT      O 7645   1.206   0.965   0.528
 1895WAT     H1 7646   1.270   0.908   0.485
 1895WAT     H2 7647   1.241   1.053   0.516
 1895WAT    EPW 7648   1.219   0.969   0.521
 1896WAT      O 7649   1.763   1.562   1.779
 1896WAT     H1 7650   1.811   1.510   1.844
 1896WAT     H2 7651   1.685   1.510   1.761
 1896WAT    EPW 7652   1.759   1.548   1.785
 1897WAT      O 7653   0.285   3.113   3.150
 1897WAT     H1 7654   0.327   3.171   3.087
 1897WAT     H2 7655   0.194   3.107   3.120
 1897WAT    EPW 7656   0.278   3.120   3.138
 1898WAT      O 7657   2.886   4.109   1.433
 1898WAT     H1 7658   2.968   4.063   1.452
 1898WAT     H2 7659   2.848   4.127   1.519
 1898WAT    EPW 7660   2.892   4.105   1.447
 1899WAT      O 7661   1.715   2.822   0.778
 1899WAT     H1 7662   1.678   2.909   0.759
 1899WAT     H2 7663   1.698   2.772   0.698
 1899WAT    EPW 7664   1.708   2.827   0.765
 1900WAT      O 7665   0.114   0.234   3.592
 1900WAT     H1 7666   0.029   0.262   3.626
 1900WAT     H2 7667   0.121   0.142   3.618
 1900WAT    EPW 7668   0.104   0.225   3.600
 1901WAT      O 7669   2.933   3.575   1.496
 1901WAT     H1 7670   2.999   3.516   1.533
 1901WAT     H2 7671   2.966   3.596   1.409
 1901WAT    EPW 7672   2.946   3.570   1.490
 1902WAT      O 7673   1.319   0.208   2.906
 1902WAT     H1 7674   1.368   0.155   2.843
 1902WAT     H2 7675   1.323   0.159   2.988
 1902WAT    EPW 7676   1.326   0.195   2.909
 1903WAT      O 7677   0.197   3.213   1.740
 1903WAT     H1 7678   0.223   3.142   1.682
 1903WAT     H2 7679   0.256   3.285   1.719
 1903WAT    EPW 7680   0.208   3.213   1.730
 1904WAT      O 7681   0.671   1.205   2.324
 1904WAT     H1 7682   0.606   1.137   2.341
 1904WAT     H2 7683   0.677   1.254   2.406
 1904WAT    EPW 7684   0.663   1.203   2.337
 1905WAT      O 7685   2.438   2.448   2.308
 1905WAT     H1 7686   2.342   2.450   2.297
 1905WAT     H2 7687   2.461   2.537   2.332
 1905WAT    EPW 7688   2.428   2.460   2.309
 1906WAT      O 7689   1.027   0.312   1.009
 1906WAT     H1 7690   1.093   0.255   0.971
 1906WAT     H2 7691   1.018   0.384   0.947
 1906WAT    EPW 7692   1.034   0.314   0.996
 1907WAT      O 7693   3.562   0.119   3.974
 1907WAT     H1 7694   3.534   0.192   4.029
 1907WAT     H2 7695   3.564   0.044   4.034
 1907WAT    EPW 7696   3.559   0.119   3.989
 1908WAT      O 7697   3.680   1.635   3.264
 1908WAT     H1 7698   3.700   1.728   3.270
 1908WAT     H2 7699   3.588   1.629   3.289
 1908WAT    EPW 7700   3.670   1.646   3.268
 1909WAT      O 7701   2.023   0.156   3.542
 1909WAT     H1 7702   2.071   0.233   3.575
 1909WAT     H2 7703   2.057   0.143   3.453
 1909WAT    EPW 7704   2.034   0.165   3.535
 1910WAT      O 7705   1.377   1.578   0.962
 1910WAT     H1 7706   1.356   1.635   1.037
 1910WAT     H2 7707   1.303   1.590   0.902
 1910WAT    EPW 7708   1.365   1.587   0.964
 1911WAT      O 7709   3.540   0.411   1.701
 1911WAT     H1 7710   3.489   0.462   1.765
 1911WAT     H2 7711   3.600   0.360   1.755
 1911WAT    EPW 7712   3.541   0.411   1.717
 1912WAT      O 7713   2.890   0.764   2.097
 1912WAT     H1 7714   2.865   0.815   2.020
 1912WAT     H2 7715   2.972   0.721   2.072
 1912WAT    EPW 7716   2.898   0.765   2.083
 1913WAT      O 7717   1.954   0.986   2.172
 1913WAT     H1 7718   2.035   0.938   2.191
 1913WAT     H2 7719   1.975   1.037   2.093
 1913WAT    EPW 7720   1.968   0.986   2.164
 1914WAT      O 7721   0.769   3.987   3.079
 1914WAT     H1 7722   0.689   3.971   3.129
 1914WAT     H2 7723   0.748   4.063   3.024
 1914WAT    EPW 7724   0.756   3.995   3.078
 1915WAT      O 7725   2.824   1.145   2.047
 1915WAT     H1 7726   2.747   1.170   1.996
 1915WAT     H2 7727   2.831   1.213   2.114
 1915WAT    EPW 7728   2.815   1.158   2.049
 1916WAT      O 7729   2.403   2.621   0.320
 1916WAT     H1 7730   2.436   2.690   0.262
 1916WAT     H2 7731   2.396   2.544   0.264
 1916WAT    EPW 7732   2.407   2.620   0.305
 1917WAT      O 7733   1.906   1.648   3.172
 1917WAT     H1 7734   1.982   1.626   3.118
 1917WAT     H2 7735   1.831   1.641   3.113
 1917WAT    EPW 7736   1.907   1.644   3.157
 1918WAT      O 7737   2.895   1.531   1.009
 1918WAT     H1 7738   2.854   1.453   1.046
 1918WAT     H2 7739   2.934   1.576   1.083
 1918WAT    EPW 7740   2.894   1.526   1.023
 1919WAT      O 7741   0.457   1.252   3.055
 1919WAT     H1 7742   0.461   1.163   3.088
 1919WAT     H2 7743   0.455   1.243   2.960
 1919WAT    EPW 7744   0.457   1.239   3.047
 1920WAT      O 7745   3.610   2.003   3.819
 1920WAT     H1 7746   3.698   1.983   3.787
 1920WAT     H2 7747   3.619   2.007   3.914
 1920WAT    EPW 7748   3.623   2.001   3.828
 1921WAT      O 7749   3.232   3.240   1.793
 1921WAT     H1 7750   3.251   3.309   1.856
 1921WAT     H2 7751   3.165   3.186   1.836
 1921WAT    EPW 7752   3.225   3.242   1.807
 1922WAT      O 7753   0.068   1.694   3.532
 1922WAT     H1 7754   0.105   1.606   3.525
 1922WAT     H2 7755  -0.025   1.682   3.511
 1922WAT    EPW 7756   0.060   1.681   3.528
 1923WAT      O 7757   3.465   2.094   2.841
 1923WAT     H1 7758   3.423   2.010   2.857
 1923WAT     H2 7759   3.540   2.096   2.900
 1923WAT    EPW 7760   3.469   2.083   2.851
 1924WAT      O 7761   1.279   1.796   2.738
 1924WAT     H1 7762   1.329   1.833   2.810
 1924WAT     H2 7763   1.322   1.830   2.659
 1924WAT    EPW 7764   1.291   1.806   2.737
 1925WAT      O 7765   3.165   3.995   1.458
 1925WAT     H1 7766   3.137   3.940   1.531
 1925WAT     H2 7767   3.192   4.077   1.499
 1925WAT    EPW 7768   3.165   3.998   1.473
 1926WAT      O 7769   1.112   2.547   2.100
 1926WAT     H1 7770   1.136   2.458   2.071
 1926WAT     H2 7771   1.080   2.590   2.021
 1926WAT    EPW 7772   1.111   2.541   2.085
 1927WAT      O 7773   3.511   1.669   0.286
 1927WAT     H1 7774   3.558   1.741   0.329
 1927WAT     H2 7775   3.433   1.656   0.340
 1927WAT    EPW 7776   3.507   1.677   0.299
 1928WAT      O 7777   0.926   3.946   0.338
 1928WAT     H1 7778   0.864   4.017   0.318
 1928WAT     H2 7779   0.929   3.945   0.434
 1928WAT    EPW 7780   0.918   3.955   0.348
 1929WAT      O 7781   1.651   3.818   3.994
 1929WAT     H1 7782   1.706   3.741   3.984
 1929WAT     H2 7783   1.679   3.877   3.925
 1929WAT    EPW 7784   1.662   3.815   3.984
 1930WAT      O 7785   2.390   2.172   2.703
 1930WAT     H1 7786   2.302   2.205   2.685
 1930WAT     H2 7787   2.441   2.197   2.626
 1930WAT    EPW 7788   2.386   2.179   2.691
 1931WAT      O 7789   2.374   2.285   0.917
 1931WAT     H1 7790   2.297   2.253   0.964
 1931WAT     H2 7791   2.409   2.354   0.973
 1931WAT    EPW 7792   2.368   2.290   0.931
 1932WAT      O 7793   1.403   0.635   3.194
 1932WAT     H1 7794   1.461   0.561   3.174
 1932WAT     H2 7795   1.356   0.607   3.273
 1932WAT    EPW 7796   1.404   0.621   3.202
 1933WAT      O 7797   3.647   0.260   3.736
 1933WAT     H1 7798   3.564   0.272   3.691
 1933WAT     H2 7799   3.624   0.215   3.817
 1933WAT    EPW 7800   3.633   0.256   3.741
 1934WAT      O 7801   1.535   3.320   2.590
 1934WAT     H1 7802   1.476   3.266   2.643
 1934WAT     H2 7803   1.491   3.404   2.583
 1934WAT    EPW 7804   1.522   3.324   2.596
 1935WAT      O 7805   3.006   2.176   0.450
 1935WAT     H1 7806   3.013   2.214   0.537
 1935WAT     H2 7807   3.036   2.245   0.391
 1935WAT    EPW 7808   3.011   2.190   0.453
 1936WAT      O 7809   1.214   3.787   0.128
 1936WAT     H1 7810   1.232   3.788   0.034
 1936WAT     H2 7811   1.180   3.875   0.146
 1936WAT    EPW 7812   1.212   3.799   0.118
 1937WAT      O 7813   3.068   2.407   2.160
 1937WAT     H1 7814   3.143   2.457   2.193
 1937WAT     H2 7815   2.995   2.469   2.163
 1937WAT    EPW 7816   3.068   2.422   2.165
 1938WAT      O 7817   1.145   2.744   1.732
 1938WAT     H1 7818   1.065   2.767   1.781
 1938WAT     H2 7819   1.216   2.780   1.785
 1938WAT    EPW 7820   1.144   2.752   1.746
 1939WAT      O 7821   2.808   2.655   2.489
 1939WAT     H1 7822   2.853   2.708   2.423
 1939WAT     H2 7823   2.715   2.675   2.476
 1939WAT    EPW 7824   2.802   2.665   2.479
 1940WAT      O 7825   0.292   2.038   3.449
 1940WAT     H1 7826   0.340   1.958   3.427
 1940WAT     H2 7827   0.351   2.088   3.505
 1940WAT    EPW 7828   0.306   2.034   3.453
 1941WAT      O 7829   0.320   1.339   2.558
 1941WAT     H1 7830   0.337   1.324   2.465
 1941WAT     H2 7831   0.225   1.345   2.565
 1941WAT    EPW 7832   0.310   1.338   2.547
 1942WAT      O 7833   2.374   1.995   0.792
 1942WAT     H1 7834   2.354   1.953   0.876
 1942WAT     H2 7835   2.319   2.074   0.792
 1942WAT    EPW 7836   2.364   2.000   0.803
 1943WAT      O 7837   0.441   0.268   3.824
 1943WAT     H1 7838   0.446   0.287   3.917
 1943WAT     H2 7839   0.391   0.187   3.818
 1943WAT    EPW 7840   0.435   0.260   3.835
 1944WAT      O 7841   3.029   3.805   3.307
 1944WAT     H1 7842   3.037   3.881   3.364
 1944WAT     H2 7843   2.981   3.837   3.230
 1944WAT    EPW 7844   3.023   3.819   3.304
 1945WAT      O 7845   1.217   3.941   1.444
 1945WAT     H1 7846   1.126   3.938   1.415
 1945WAT     H2 7847   1.228   3.861   1.496
 1945WAT    EPW 7848   1.207   3.930   1.447
 1946WAT      O 7849   0.524   0.742   0.205
 1946WAT     H1 7850   0.477   0.825   0.195
 1946WAT     H2 7851   0.617   0.766   0.203
 1946WAT    EPW 7852   0.530   0.756   0.203
 1947WAT      O 7853   2.532   3.677   1.714
 1947WAT     H1 7854   2.481   3.696   1.636
 1947WAT     H2 7855   2.588   3.603   1.689
 1947WAT    EPW 7856   2.533   3.670   1.701
 1948WAT      O 7857   3.193   0.763   2.210
 1948WAT     H1 7858   3.233   0.846   2.185
 1948WAT     H2 7859   3.259   0.697   2.191
 1948WAT    EPW 7860   3.207   0.765   2.205
 1949WAT      O 7861   2.848   1.818   3.215
 1949WAT     H1 7862   2.807   1.852   3.135
 1949WAT     H2 7863   2.791   1.848   3.285
 1949WAT    EPW 7864   2.835   1.827   3.213
 1950WAT      O 7865   3.030   3.672   2.589
 1950WAT     H1 7866   3.044   3.724   2.668
 1950WAT     H2 7867   2.935   3.656   2.588
 1950WAT    EPW 7868   3.019   3.677   2.600
 1951WAT      O 7869   2.296   0.090   1.809
 1951WAT     H1 7870   2.243   0.013   1.831
 1951WAT     H2 7871   2.335   0.068   1.724
 1951WAT    EPW 7872   2.294   0.077   1.800
 1952WAT      O 7873   2.686   2.839   2.081
 1952WAT     H1 7874   2.620   2.771   2.094
 1952WAT     H2 7875   2.715   2.827   1.991
 1952WAT    EPW 7876   2.681   2.829   2.071
 1953WAT      O 7877   0.905   2.236   2.345
 1953WAT     H1 7878   0.993   2.207   2.321
 1953WAT     H2 7879   0.889   2.194   2.430
 1953WAT    EPW 7880   0.915   2.226   2.353
 1954WAT      O 7881   3.235   3.703   1.481
 1954WAT     H1 7882   3.210   3.692   1.573
 1954WAT     H2 7883   3.307   3.766   1.483
 1954WAT    EPW 7884   3.241   3.710   1.493
 1955WAT      O 7885   0.210   0.437   3.396
 1955WAT     H1 7886   0.153   0.422   3.320
 1955WAT     H2 7887   0.182   0.371   3.460
 1955WAT    EPW 7888   0.199   0.426   3.395
 1956WAT      O 7889   2.968   2.862   3.320
 1956WAT     H1 7890   2.962   2.909   3.237
 1956WAT     H2 7891   3.060   2.836   3.327
 1956WAT    EPW 7892   2.979   2.865   3.310
 1957WAT      O 7893   2.395   1.525   3.440
 1957WAT     H1 7894   2.382   1.436   3.405
 1957WAT     H2 7895   2.320   1.574   3.406
 1957WAT    EPW 7896   2.383   1.519   3.431
 1958WAT      O 7897   0.595   0.915   0.905
 1958WAT     H1 7898   0.683   0.900   0.940
 1958WAT     H2 7899   0.547   0.835   0.928
 1958WAT    EPW 7900   0.600   0.903   0.913
 1959WAT      O 7901   0.240   2.190   2.574
 1959WAT     H1 7902   0.164   2.190   2.632
 1959WAT     H2 7903   0.260   2.098   2.560
 1959WAT    EPW 7904   0.232   2.178   2.580
 1960WAT      O 7905   1.627   0.865   0.346
 1960WAT     H1 7906   1.628   0.943   0.400
 1960WAT     H2 7907   1.680   0.887   0.270
 1960WAT    EPW 7908   1.634   0.878   0.343
 1961WAT      O 7909   1.184   3.438   2.440
 1961WAT     H1 7910   1.224   3.355   2.465
 1961WAT     H2 7911   1.253   3.485   2.393
 1961WAT    EPW 7912   1.198   3.433   2.437
 1962WAT      O 7913   1.807   1.489   3.675
 1962WAT     H1 7914   1.892   1.527   3.651
 1962WAT     H2 7915   1.828   1.426   3.744
 1962WAT    EPW 7916   1.821   1.486   3.681
 1963WAT      O 7917   3.282   1.086   3.935
 1963WAT     H1 7918   3.288   1.116   3.844
 1963WAT     H2 7919   3.372   1.093   3.968
 1963WAT    EPW 7920   3.295   1.091   3.927
 1964WAT      O 7921   3.505   0.824   0.102
 1964WAT     H1 7922   3.551   0.892   0.150
 1964WAT     H2 7923   3.537   0.833   0.012
 1964WAT    EPW 7924   3.515   0.834   0.096
 1965WAT      O 7925   0.267   0.185   2.783
 1965WAT     H1 7926   0.211   0.260   2.803
 1965WAT     H2 7927   0.340   0.222   2.733
 1965WAT    EPW 7928   0.269   0.199   2.779
 1966WAT      O 7929   0.221   4.076   3.136
 1966WAT     H1 7930   0.174   4.131   3.199
 1966WAT     H2 7931   0.153   4.033   3.085
 1966WAT    EPW 7932   0.206   4.078   3.138
 1967WAT      O 7933   2.412   0.296   3.415
 1967WAT     H1 7934   2.378   0.211   3.443
 1967WAT     H2 7935   2.506   0.281   3.403
 1967WAT    EPW 7936   2.420   0.283   3.417
 1968WAT      O 7937   0.876   0.060   0.984
 1968WAT     H1 7938   0.932   0.137   0.972
 1968WAT     H2 7939   0.820   0.059   0.906
 1968WAT    EPW 7940   0.876   0.070   0.972
 1969WAT      O 7941   2.492   1.099   0.144
 1969WAT     H1 7942   2.454   1.018   0.108
 1969WAT     H2 7943   2.486   1.162   0.073
 1969WAT    EPW 7944   2.486   1.097   0.130
 1970WAT      O 7945   1.515   1.518   0.526
 1970WAT     H1 7946   1.459   1.441   0.521
 1970WAT     H2 7947   1.460   1.590   0.493
 1970WAT    EPW 7948   1.500   1.518   0.521
 1971WAT      O 7949   2.451   0.761   0.494
 1971WAT     H1 7950   2.493   0.839   0.531
 1971WAT     H2 7951   2.487   0.754   0.406
 1971WAT    EPW 7952   2.462   0.770   0.487
 1972WAT      O 7953   1.205   2.550   3.462
 1972WAT     H1 7954   1.217   2.459   3.436
 1972WAT     H2 7955   1.286   2.593   3.435
 1972WAT    EPW 7956   1.217   2.544   3.455
 1973WAT      O 7957   1.120   2.337   0.933
 1973WAT     H1 7958   1.100   2.273   0.865
 1973WAT     H2 7959   1.043   2.393   0.937
 1973WAT    EPW 7960   1.107   2.336   0.924
 1974WAT      O 7961   2.753   0.821   3.143
 1974WAT     H1 7962   2.778   0.858   3.228
 1974WAT     H2 7963   2.669   0.780   3.158
 1974WAT    EPW 7964   2.745   0.821   3.156
 1975WAT      O 7965   0.623   0.064   2.452
 1975WAT     H1 7966   0.555   0.032   2.512
 1975WAT     H2 7967   0.688   0.104   2.510
 1975WAT    EPW 7968   0.622   0.065   2.468
 1976WAT      O 7969   3.018   3.663   0.905
 1976WAT     H1 7970   2.947   3.715   0.944
 1976WAT     H2 7971   3.018   3.581   0.954
 1976WAT    EPW 7972   3.008   3.659   0.917
 1977WAT      O 7973   2.385   0.369   2.650
 1977WAT     H1 7974   2.403   0.389   2.558
 1977WAT     H2 7975   2.449   0.301   2.672
 1977WAT    EPW 7976   2.396   0.362   2.640
 1978WAT      O 7977   1.524   1.203   0.217
 1978WAT     H1 7978   1.585   1.237   0.151
 1978WAT     H2 7979   1.563   1.229   0.300
 1978WAT    EPW 7980   1.537   1.211   0.219
 1979WAT      O 7981   3.191   0.948   0.965
 1979WAT     H1 7982   3.160   0.957   0.874
 1979WAT     H2 7983   3.284   0.969   0.960
 1979WAT    EPW 7984   3.199   0.952   0.952
 1980WAT      O 7985   2.573   3.758   0.188
 1980WAT     H1 7986   2.583   3.837   0.241
 1980WAT     H2 7987   2.478   3.744   0.184
 1980WAT    EPW 7988   2.562   3.767   0.194
 1981WAT      O 7989   0.230   1.726   2.092
 1981WAT     H1 7990   0.315   1.766   2.071
 1981WAT     H2 7991   0.166   1.789   2.060
 1981WAT    EPW 7992   0.233   1.740   2.085
 1982WAT      O 7993   1.273   1.258   2.772
 1982WAT     H1 7994   1.304   1.232   2.858
 1982WAT     H2 7995   1.338   1.321   2.741
 1982WAT    EPW 7996   1.285   1.263   2.779
 1983WAT      O 7997   0.575   2.865   0.435
 1983WAT     H1 7998   0.530   2.785   0.408
 1983WAT     H2 7999   0.661   2.859   0.395
 1983WAT    EPW 8000   0.580   2.854   0.427
 1984WAT      O 8001   0.866   3.230   3.069
 1984WAT     H1 8002   0.821   3.145   3.068
 1984WAT     H2 8003   0.822   3.279   3.138
 1984WAT    EPW 8004   0.854   3.225   3.078
 1985WAT      O 8005   0.963   2.658   0.215
 1985WAT     H1 8006   0.950   2.588   0.151
 1985WAT     H2 8007   1.043   2.702   0.185
 1985WAT    EPW 8008   0.972   2.655   0.202
 1986WAT      O 8009   0.029   1.261   2.579
 1986WAT     H1 8010   0.013   1.216   2.496
 1986WAT     H2 8011  -0.051   1.310   2.596
 1986WAT    EPW 8012   0.017   1.261   2.570
 1987WAT      O 8013   1.222   0.800   0.865
 1987WAT     H1 8014   1.178   0.756   0.938
 1987WAT     H2 8015   1.151   0.833   0.810
 1987WAT    EPW 8016   1.207   0.799   0.868
 1988WAT      O 8017   2.560   3.044   1.164
 1988WAT     H1 8018   2.497   3.106   1.128
 1988WAT     H2 8019   2.612   3.095   1.226
 1988WAT    EPW 8020   2.558   3.059   1.167
 1989WAT      O 8021   1.194   0.405   0.703
 1989WAT     H1 8022   1.276   0.434   0.744
 1989WAT     H2 8023   1.125   0.449   0.753
 1989WAT    EPW 8024   1.196   0.415   0.715
 1990WAT      O 8025   1.894   1.386   2.491
 1990WAT     H1 8026   1.860   1.296   2.494
 1990WAT     H2 8027   1.839   1.434   2.553
 1990WAT    EPW 8028   1.882   1.380   2.500
 1991WAT      O 8029   0.643   1.582   0.621
 1991WAT     H1 8030   0.662   1.510   0.561
 1991WAT     H2 8031   0.674   1.661   0.576
 1991WAT    EPW 8032   0.650   1.583   0.607
 1992WAT      O 8033   2.425   1.797   1.021
 1992WAT     H1 8034   2.411   1.803   1.115
 1992WAT     H2 8035   2.517   1.770   1.011
 1992WAT    EPW 8036   2.435   1.794   1.032
 1993WAT      O 8037   2.576   4.046   0.566
 1993WAT     H1 8038   2.533   4.022   0.483
 1993WAT     H2 8039   2.516   4.015   0.634
 1993WAT    EPW 8040   2.562   4.039   0.564
 1994WAT      O 8041   3.438   2.217   1.194
 1994WAT     H1 8042   3.403   2.208   1.283
 1994WAT     H2 8043   3.489   2.137   1.180
 1994WAT    EPW 8044   3.440   2.205   1.204
 1995WAT      O 8045   2.312   3.487   2.698
 1995WAT     H1 8046   2.280   3.462   2.611
 1995WAT     H2 8047   2.274   3.574   2.713
 1995WAT    EPW 8048   2.303   3.495   2.688
 1996WAT      O 8049   0.756   3.866   0.118
 1996WAT     H1 8050   0.810   3.850   0.196
 1996WAT     H2 8051   0.786   3.801   0.055
 1996WAT    EPW 8052   0.767   3.855   0.120
 1997WAT      O 8053   2.442   3.911   1.929
 1997WAT     H1 8054   2.448   3.945   2.019
 1997WAT     H2 8055   2.416   3.819   1.941
 1997WAT    EPW 8056   2.439   3.903   1.943
 1998WAT      O 8057   0.051   0.170   0.476
 1998WAT     H1 8058  -0.002   0.101   0.436
 1998WAT     H2 8059   0.072   0.229   0.404
 1998WAT    EPW 8060   0.047   0.169   0.461
 1999WAT      O 8061   1.605   1.087   1.197
 1999WAT     H1 8062   1.685   1.069   1.247
 1999WAT     H2 8063   1.568   1.165   1.239
 1999WAT    EPW 8064   1.611   1.095   1.209
 2000WAT      O 8065   2.496   2.478   1.726
 2000WAT     H1 8066   2.511   2.555   1.781
 2000WAT     H2 8067   2.413   2.442   1.758
 2000WAT    EPW 8068   2.487   2.483   1.738
 2001WAT      O 8069   3.028   1.201   4.060
 2001WAT     H1 8070   2.954   1.154   4.021
 2001WAT     H2 8071   3.079   1.232   3.985
 2001WAT    EPW 8072   3.025   1.199   4.045
 2002WAT      O 8073   2.396   1.306   1.387
 2002WAT     H1 8074   2.358   1.386   1.424
 2002WAT     H2 8075   2.320   1.253   1.363
 2002WAT    EPW 8076   2.381   1.310   1.389
 2003WAT      O 8077   1.263   3.512   3.775
 2003WAT     H1 8078   1.207   3.444   3.735
 2003WAT     H2 8079   1.259   3.585   3.713
 2003WAT    EPW 8080   1.255   3.513   3.761
 2004WAT      O 8081   2.931   3.247   3.768
 2004WAT     H1 8082   2.957   3.179   3.706
 2004WAT     H2 8083   2.922   3.326   3.714
 2004WAT    EPW 8084   2.934   3.249   3.753
 2005WAT      O 8085   2.273   1.558   1.507
 2005WAT     H1 8086   2.265   1.533   1.599
 2005WAT     H2 8087   2.192   1.605   1.488
 2005WAT    EPW 8088   2.261   1.561   1.517
 2006WAT      O 8089   1.564   3.711   1.690
 2006WAT     H1 8090   1.493   3.710   1.626
 2006WAT     H2 8091   1.539   3.645   1.755
 2006WAT    EPW 8092   1.551   3.702   1.690
 2007WAT      O 8093   0.722   2.710   1.092
 2007WAT     H1 8094   0.742   2.674   1.178
 2007WAT     H2 8095   0.626   2.708   1.087
 2007WAT    EPW 8096   0.712   2.705   1.102
 2008WAT      O 8097   3.760   0.528   1.053
 2008WAT     H1 8098   3.856   0.533   1.059
 2008WAT     H2 8099   3.738   0.576   0.974
 2008WAT    EPW 8100   3.770   0.535   1.044
 2009WAT      O 8101   2.174   0.489   0.226
 2009WAT     H1 8102   2.127   0.506   0.145
 2009WAT     H2 8103   2.113   0.514   0.295
 2009WAT    EPW 8104   2.160   0.494   0.224
 2010WAT      O 8105   1.887   0.392   2.994
 2010WAT     H1 8106   1.843   0.439   3.065
 2010WAT     H2 8107   1.844   0.425   2.914
 2010WAT    EPW 8108   1.875   0.403   2.993
 2011WAT      O 8109   3.024   1.147   2.916
 2011WAT     H1 8110   3.002   1.211   2.849
 2011WAT     H2 8111   3.007   1.193   2.999
 2011WAT    EPW 8112   3.018   1.162   2.918
 2012WAT      O 8113   3.598   1.020   2.774
 2012WAT     H1 8114   3.630   0.946   2.722
 2012WAT     H2 8115   3.519   0.986   2.817
 2012WAT    EPW 8116   3.592   1.006   2.773
 2013WAT      O 8117   2.959   2.084   2.004
 2013WAT     H1 8118   2.957   1.989   2.017
 2013WAT     H2 8119   2.894   2.117   2.066
 2013WAT    EPW 8120   2.950   2.075   2.014
 2014WAT      O 8121   0.555   3.655   1.063
 2014WAT     H1 8122   0.588   3.565   1.067
 2014WAT     H2 8123   0.546   3.672   0.969
 2014WAT    EPW 8124   0.558   3.645   1.051
 2015WAT      O 8125   1.185   1.662   3.601
 2015WAT     H1 8126   1.090   1.672   3.590
 2015WAT     H2 8127   1.195   1.579   3.647
 2015WAT    EPW 8128   1.173   1.653   3.606
 2016WAT      O 8129   0.893   1.681   3.565
 2016WAT     H1 8130   0.847   1.764   3.560
 2016WAT     H2 8131   0.891   1.647   3.476
 2016WAT    EPW 8132   0.887   1.688   3.553
 2017WAT      O 8133   2.232   3.323   1.727
 2017WAT     H1 8134   2.267   3.363   1.647
 2017WAT     H2 8135   2.309   3.306   1.781
 2017WAT    EPW 8136   2.247   3.326   1.723
 2018WAT      O 8137   3.624   1.125   2.043
 2018WAT     H1 8138   3.652   1.188   1.977
 2018WAT     H2 8139   3.536   1.153   2.068
 2018WAT    EPW 8140   3.616   1.137   2.038
 2019WAT      O 8141   0.874   3.222   3.493
 2019WAT     H1 8142   0.826   3.214   3.576
 2019WAT     H2 8143   0.807   3.242   3.428
 2019WAT    EPW 8144   0.859   3.223   3.496
 2020WAT      O 8145   3.177   1.737   0.301
 2020WAT     H1 8146   3.170   1.689   0.219
 2020WAT     H2 8147   3.143   1.677   0.367
 2020WAT    EPW 8148   3.171   1.723   0.299
   3.77511   4.14659   4.09505
