Generic title t= 3000.00000 step= 1500000
 8148
    1C5    HO5'    1   1.786   1.076   1.879
    1C5     O5'    2   1.703   1.120   1.896
    1C5     C5'    3   1.622   1.130   1.774
    1C5     H5'    4   1.591   1.031   1.741
    1C5    H5''    5   1.665   1.195   1.698
    1C5     C4'    6   1.486   1.200   1.810
    1C5     H4'    7   1.425   1.189   1.721
    1C5     O4'    8   1.421   1.126   1.917
    1C5     C1'    9   1.342   1.217   1.991
    1C5     H1'   10   1.241   1.177   1.984
    1C5      N1   11   1.388   1.220   2.135
    1C5      C6   12   1.509   1.171   2.179
    1C5      H6   13   1.577   1.142   2.100
    1C5      C5   14   1.541   1.172   2.308
    1C5      H5   15   1.637   1.135   2.343
    1C5      C4   16   1.444   1.217   2.401
    1C5      N4   17   1.474   1.233   2.530
    1C5     H41   18   1.395   1.276   2.576
    1C5     H42   19   1.552   1.185   2.571
    1C5      N3   20   1.333   1.273   2.362
    1C5      C2   21   1.297   1.265   2.229
    1C5      O2   22   1.180   1.290   2.204
    1C5     C3'   23   1.486   1.350   1.858
    1C5     H3'   24   1.570   1.354   1.927
    1C5     C2'   25   1.351   1.359   1.928
    1C5     H2'   26   1.355   1.431   2.009
    1C5     O2'   27   1.246   1.384   1.835
    1C5    HO2'   28   1.256   1.474   1.805
    1C5     O3'   29   1.517   1.447   1.748
    2C        P   30   1.604   1.578   1.793
    2C      OP1   31   1.594   1.685   1.689
    2C      OP2   32   1.733   1.530   1.844
    2C      O5'   33   1.515   1.636   1.919
    2C      C5'   34   1.577   1.710   2.021
    2C      H5'   35   1.617   1.798   1.972
    2C     H5''   36   1.657   1.662   2.077
    2C      C4'   37   1.464   1.744   2.119
    2C      H4'   38   1.380   1.790   2.066
    2C      O4'   39   1.419   1.621   2.188
    2C      C1'   40   1.420   1.644   2.330
    2C      H1'   41   1.333   1.603   2.380
    2C       N1   42   1.546   1.578   2.384
    2C       C6   43   1.624   1.490   2.310
    2C       H6   44   1.609   1.470   2.205
    2C       C5   45   1.733   1.428   2.373
    2C       H5   46   1.797   1.364   2.313
    2C       C4   47   1.755   1.438   2.511
    2C       N4   48   1.850   1.387   2.572
    2C      H41   49   1.852   1.398   2.672
    2C      H42   50   1.923   1.339   2.521
    2C       N3   51   1.665   1.503   2.582
    2C       C2   52   1.569   1.574   2.524
    2C       O2   53   1.488   1.628   2.599
    2C      C3'   54   1.509   1.841   2.235
    2C      H3'   55   1.612   1.819   2.261
    2C      C2'   56   1.429   1.798   2.351
    2C      H2'   57   1.486   1.824   2.440
    2C      O2'   58   1.293   1.842   2.356
    2C     HO2'   59   1.295   1.937   2.344
    2C      O3'   60   1.486   1.981   2.215
    3C        P   61   1.600   2.080   2.158
    3C      OP1   62   1.536   2.173   2.066
    3C      OP2   63   1.707   2.001   2.097
    3C      O5'   64   1.657   2.148   2.301
    3C      C5'   65   1.563   2.219   2.382
    3C      H5'   66   1.463   2.176   2.372
    3C     H5''   67   1.560   2.323   2.347
    3C      C4'   68   1.595   2.217   2.527
    3C      H4'   69   1.518   2.263   2.589
    3C      O4'   70   1.613   2.087   2.572
    3C      C1'   71   1.701   2.086   2.685
    3C      H1'   72   1.634   2.060   2.766
    3C       N1   73   1.806   1.985   2.676
    3C       C6   74   1.831   1.915   2.557
    3C       H6   75   1.789   1.950   2.464
    3C       C5   76   1.896   1.792   2.557
    3C       H5   77   1.909   1.733   2.468
    3C       C4   78   1.954   1.755   2.681
    3C       N4   79   2.025   1.649   2.693
    3C      H41   80   2.058   1.625   2.785
    3C      H42   81   2.033   1.581   2.619
    3C       N3   82   1.942   1.822   2.794
    3C       C2   83   1.860   1.929   2.794
    3C       O2   84   1.846   1.990   2.898
    3C      C3'   85   1.728   2.291   2.555
    3C      H3'   86   1.812   2.247   2.502
    3C      C2'   87   1.748   2.229   2.690
    3C      H2'   88   1.856   2.235   2.707
    3C      O2'   89   1.677   2.302   2.789
    3C     HO2'   90   1.665   2.395   2.766
    3C      O3'   91   1.723   2.436   2.562
    4C3       P   92   1.856   2.522   2.530
    4C3     OP1   93   1.830   2.661   2.563
    4C3     OP2   94   1.895   2.494   2.394
    4C3     O5'   95   1.980   2.472   2.626
    4C3     C5'   96   1.996   2.496   2.763
    4C3     H5'   97   1.900   2.477   2.810
    4C3    H5''   98   2.015   2.603   2.776
    4C3     C4'   99   2.112   2.417   2.829
    4C3     H4'  100   2.100   2.434   2.936
    4C3     O4'  101   2.094   2.277   2.801
    4C3     C1'  102   2.209   2.230   2.734
    4C3     H1'  103   2.260   2.175   2.813
    4C3      N1  104   2.182   2.137   2.620
    4C3      C6  105   2.071   2.152   2.539
    4C3      H6  106   2.015   2.243   2.555
    4C3      C5  107   2.053   2.066   2.441
    4C3      H5  108   1.968   2.089   2.379
    4C3      C4  109   2.133   1.960   2.429
    4C3      N4  110   2.124   1.875   2.335
    4C3     H41  111   2.181   1.792   2.336
    4C3     H42  112   2.053   1.891   2.265
    4C3      N3  113   2.243   1.934   2.502
    4C3      C2  114   2.269   2.032   2.599
    4C3      O2  115   2.363   2.004   2.676
    4C3     C3'  116   2.251   2.456   2.794
    4C3     H3'  117   2.252   2.563   2.769
    4C3     C2'  118   2.287   2.349   2.687
    4C3     H2'  119   2.248   2.381   2.591
    4C3     O2'  120   2.426   2.329   2.681
    4C3    HO2'  121   2.461   2.381   2.609
    4C3     O3'  122   2.323   2.436   2.916
    4C3    HO3'  123   2.415   2.426   2.891
    5Na+    Na+  124   0.150   0.259   0.949
    6Na+    Na+  125   1.097   0.167   1.604
    7Na+    Na+  126   1.930   3.941   3.815
    8Na+    Na+  127   3.152   1.513   2.573
    9Na+    Na+  128   3.051   3.202   1.978
   10Na+    Na+  129   1.545   0.782   3.241
   11Na+    Na+  130   3.519   2.223   0.574
   12Na+    Na+  131   0.109   3.514   0.783
   13Cl-    Cl-  132   1.173   3.851   1.535
   14Cl-    Cl-  133   0.027   0.137   0.347
   15Cl-    Cl-  134   1.123   1.158   3.711
   16Cl-    Cl-  135   1.463   3.425   3.353
   17Cl-    Cl-  136   3.480   1.317   1.840
   18WAT      O  137   2.884   3.128   0.412
   18WAT     H1  138   2.907   3.198   0.351
   18WAT     H2  139   2.789   3.120   0.405
   18WAT    EPW  140   2.874   3.136   0.403
   19WAT      O  141   0.745   4.095   1.001
   19WAT     H1  142   0.804   4.079   1.074
   19WAT     H2  143   0.753   4.017   0.946
   19WAT    EPW  144   0.754   4.083   1.003
   20WAT      O  145   2.766   2.041   0.896
   20WAT     H1  146   2.814   2.110   0.850
   20WAT     H2  147   2.732   2.084   0.975
   20WAT    EPW  148   2.768   2.056   0.901
   21WAT      O  149   3.595   1.923   2.673
   21WAT     H1  150   3.541   1.979   2.729
   21WAT     H2  151   3.578   1.954   2.584
   21WAT    EPW  152   3.585   1.934   2.669
   22WAT      O  153   1.972   3.052   1.811
   22WAT     H1  154   1.957   2.965   1.775
   22WAT     H2  155   1.905   3.063   1.878
   22WAT    EPW  156   1.961   3.042   1.815
   23WAT      O  157   1.143   3.339   3.677
   23WAT     H1  158   1.235   3.352   3.655
   23WAT     H2  159   1.107   3.290   3.603
   23WAT    EPW  160   1.150   3.334   3.664
   24WAT      O  161   3.718   3.187   1.682
   24WAT     H1  162   3.626   3.183   1.657
   24WAT     H2  163   3.741   3.097   1.701
   24WAT    EPW  164   3.709   3.175   1.681
   25WAT      O  165   1.068   3.174   1.950
   25WAT     H1  166   1.022   3.099   1.987
   25WAT     H2  167   1.013   3.202   1.877
   25WAT    EPW  168   1.055   3.168   1.946
   26WAT      O  169   0.193   1.867   0.220
   26WAT     H1  170   0.161   1.869   0.310
   26WAT     H2  171   0.137   1.804   0.175
   26WAT    EPW  172   0.181   1.859   0.226
   27WAT      O  173   0.257   0.087   3.186
   27WAT     H1  174   0.171   0.062   3.220
   27WAT     H2  175   0.318   0.058   3.254
   27WAT    EPW  176   0.254   0.080   3.199
   28WAT      O  177   3.274   2.147   0.582
   28WAT     H1  178   3.253   2.073   0.525
   28WAT     H2  179   3.264   2.112   0.671
   28WAT    EPW  180   3.270   2.133   0.586
   29WAT      O  181   2.835   3.324   0.796
   29WAT     H1  182   2.857   3.234   0.772
   29WAT     H2  183   2.871   3.378   0.725
   29WAT    EPW  184   2.843   3.319   0.783
   30WAT      O  185   1.702   0.507   2.349
   30WAT     H1  186   1.641   0.447   2.306
   30WAT     H2  187   1.650   0.585   2.368
   30WAT    EPW  188   1.687   0.509   2.346
   31WAT      O  189   2.178   2.958   0.345
   31WAT     H1  190   2.115   2.998   0.404
   31WAT     H2  191   2.240   2.913   0.402
   31WAT    EPW  192   2.178   2.957   0.360
   32WAT      O  193   0.972   3.300   1.672
   32WAT     H1  194   0.931   3.362   1.612
   32WAT     H2  195   1.063   3.297   1.645
   32WAT    EPW  196   0.978   3.308   1.660
   33WAT      O  197   2.686   1.979   2.171
   33WAT     H1  198   2.592   1.985   2.183
   33WAT     H2  199   2.698   1.905   2.111
   33WAT    EPW  200   2.675   1.970   2.165
   34WAT      O  201   0.141   0.339   3.104
   34WAT     H1  202   0.172   0.251   3.121
   34WAT     H2  203   0.129   0.378   3.190
   34WAT    EPW  204   0.143   0.333   3.117
   35WAT      O  205   1.075   0.550   0.950
   35WAT     H1  206   1.068   0.598   1.032
   35WAT     H2  207   1.048   0.613   0.883
   35WAT    EPW  208   1.071   0.565   0.952
   36WAT      O  209   0.521   0.166   2.657
   36WAT     H1  210   0.452   0.182   2.721
   36WAT     H2  211   0.476   0.163   2.572
   36WAT    EPW  212   0.506   0.168   2.654
   37WAT      O  213   1.837   3.405   0.428
   37WAT     H1  214   1.743   3.414   0.449
   37WAT     H2  215   1.880   3.465   0.489
   37WAT    EPW  216   1.830   3.414   0.439
   38WAT      O  217   3.043   0.031   1.207
   38WAT     H1  218   2.985   0.070   1.273
   38WAT     H2  219   3.122   0.086   1.210
   38WAT    EPW  220   3.046   0.044   1.216
   39WAT      O  221   1.302   0.260   0.254
   39WAT     H1  222   1.322   0.221   0.168
   39WAT     H2  223   1.325   0.352   0.244
   39WAT    EPW  224   1.308   0.267   0.241
   40WAT      O  225   3.399   2.676   1.189
   40WAT     H1  226   3.412   2.671   1.094
   40WAT     H2  227   3.325   2.735   1.200
   40WAT    EPW  228   3.391   2.683   1.178
   41WAT      O  229   0.380   1.263   1.735
   41WAT     H1  230   0.290   1.294   1.750
   41WAT     H2  231   0.404   1.221   1.818
   41WAT    EPW  232   0.371   1.262   1.748
   42WAT      O  233   1.282   2.432   0.810
   42WAT     H1  234   1.314   2.343   0.829
   42WAT     H2  235   1.360   2.487   0.816
   42WAT    EPW  236   1.296   2.427   0.813
   43WAT      O  237   2.312   0.614   0.475
   43WAT     H1  238   2.248   0.594   0.544
   43WAT     H2  239   2.301   0.707   0.459
   43WAT    EPW  240   2.302   0.623   0.482
   44WAT      O  241   2.494   1.076   3.555
   44WAT     H1  242   2.536   1.043   3.634
   44WAT     H2  243   2.406   1.101   3.583
   44WAT    EPW  244   2.488   1.075   3.569
   45WAT      O  245   2.050   2.742   0.658
   45WAT     H1  246   2.118   2.765   0.595
   45WAT     H2  247   1.968   2.744   0.608
   45WAT    EPW  248   2.048   2.745   0.643
   46WAT      O  249   0.525   1.371   4.004
   46WAT     H1  250   0.557   1.439   4.063
   46WAT     H2  251   0.587   1.372   3.931
   46WAT    EPW  252   0.538   1.380   4.002
   47WAT      O  253   0.562   0.919   2.937
   47WAT     H1  254   0.577   1.006   2.973
   47WAT     H2  255   0.589   0.859   3.007
   47WAT    EPW  256   0.568   0.923   2.951
   48WAT      O  257   2.163   3.678   1.620
   48WAT     H1  258   2.235   3.681   1.557
   48WAT     H2  259   2.203   3.648   1.701
   48WAT    EPW  260   2.178   3.674   1.622
   49WAT      O  261   1.116   0.534   1.271
   49WAT     H1  262   1.186   0.477   1.238
   49WAT     H2  263   1.157   0.620   1.279
   49WAT    EPW  264   1.131   0.538   1.267
   50WAT      O  265   0.377   2.574   0.432
   50WAT     H1  266   0.457   2.589   0.381
   50WAT     H2  267   0.410   2.553   0.520
   50WAT    EPW  268   0.392   2.573   0.437
   51WAT      O  269   3.523   3.149   2.946
   51WAT     H1  270   3.566   3.215   2.892
   51WAT     H2  271   3.570   3.067   2.925
   51WAT    EPW  272   3.535   3.147   2.936
   52WAT      O  273   0.502   2.537   1.479
   52WAT     H1  274   0.451   2.568   1.554
   52WAT     H2  275   0.505   2.612   1.420
   52WAT    EPW  276   0.495   2.551   1.481
   53WAT      O  277   0.391   3.999   2.321
   53WAT     H1  278   0.415   3.910   2.294
   53WAT     H2  279   0.349   3.988   2.406
   53WAT    EPW  280   0.389   3.986   2.329
   54WAT      O  281   0.321   2.112   0.504
   54WAT     H1  282   0.384   2.179   0.530
   54WAT     H2  283   0.372   2.050   0.452
   54WAT    EPW  284   0.336   2.113   0.501
   55WAT      O  285   0.346   0.265   1.070
   55WAT     H1  286   0.344   0.209   1.147
   55WAT     H2  287   0.439   0.285   1.057
   55WAT    EPW  288   0.358   0.260   1.078
   56WAT      O  289   1.172   2.642   2.463
   56WAT     H1  290   1.135   2.679   2.543
   56WAT     H2  291   1.264   2.627   2.484
   56WAT    EPW  292   1.179   2.645   2.477
   57WAT      O  293   2.331   3.392   1.428
   57WAT     H1  294   2.246   3.381   1.472
   57WAT     H2  295   2.362   3.303   1.415
   57WAT    EPW  296   2.324   3.379   1.432
   58WAT      O  297   0.738   3.669   2.959
   58WAT     H1  298   0.802   3.719   2.908
   58WAT     H2  299   0.748   3.579   2.927
   58WAT    EPW  300   0.747   3.663   2.948
   59WAT      O  301   1.572   3.135   0.781
   59WAT     H1  302   1.504   3.096   0.835
   59WAT     H2  303   1.652   3.127   0.834
   59WAT    EPW  304   1.574   3.129   0.795
   60WAT      O  305   2.985   2.852   0.501
   60WAT     H1  306   2.963   2.933   0.455
   60WAT     H2  307   2.911   2.837   0.560
   60WAT    EPW  308   2.972   2.861   0.502
   61WAT      O  309   1.474   2.941   0.508
   61WAT     H1  310   1.484   2.878   0.437
   61WAT     H2  311   1.535   2.911   0.575
   61WAT    EPW  312   1.483   2.929   0.507
   62WAT      O  313   3.738   1.657   3.702
   62WAT     H1  314   3.666   1.629   3.645
   62WAT     H2  315   3.695   1.693   3.779
   62WAT    EPW  316   3.723   1.658   3.704
   63WAT      O  317   2.721   4.068   1.849
   63WAT     H1  318   2.756   4.140   1.902
   63WAT     H2  319   2.799   4.025   1.814
   63WAT    EPW  320   2.736   4.072   1.851
   64WAT      O  321   1.101   2.036   3.836
   64WAT     H1  322   1.153   2.026   3.756
   64WAT     H2  323   1.135   2.117   3.875
   64WAT    EPW  324   1.112   2.046   3.830
   65WAT      O  325   1.429   3.469   2.889
   65WAT     H1  326   1.354   3.523   2.915
   65WAT     H2  327   1.503   3.506   2.937
   65WAT    EPW  328   1.429   3.481   2.899
   66WAT      O  329   0.869   0.611   1.600
   66WAT     H1  330   0.851   0.564   1.682
   66WAT     H2  331   0.964   0.609   1.592
   66WAT    EPW  332   0.879   0.604   1.610
   67WAT      O  333   1.222   3.235   0.169
   67WAT     H1  334   1.282   3.223   0.243
   67WAT     H2  335   1.277   3.268   0.098
   67WAT    EPW  336   1.237   3.238   0.169
   68WAT      O  337   0.144   3.629   0.977
   68WAT     H1  338   0.099   3.601   1.057
   68WAT     H2  339   0.133   3.724   0.975
   68WAT    EPW  340   0.136   3.638   0.988
   69WAT      O  341   3.521   2.085   0.774
   69WAT     H1  342   3.440   2.042   0.800
   69WAT     H2  343   3.587   2.015   0.773
   69WAT    EPW  344   3.519   2.070   0.777
   70WAT      O  345   1.176   1.402   3.159
   70WAT     H1  346   1.250   1.393   3.218
   70WAT     H2  347   1.100   1.374   3.212
   70WAT    EPW  348   1.176   1.397   3.174
   71WAT      O  349   2.742   3.199   3.575
   71WAT     H1  350   2.700   3.185   3.660
   71WAT     H2  351   2.793   3.280   3.587
   71WAT    EPW  352   2.743   3.208   3.588
   72WAT      O  353   0.687   2.146   0.187
   72WAT     H1  354   0.649   2.086   0.124
   72WAT     H2  355   0.616   2.164   0.249
   72WAT    EPW  356   0.673   2.140   0.187
   73WAT      O  357   3.734   0.043   3.217
   73WAT     H1  358   3.690   0.086   3.290
   73WAT     H2  359   3.672  -0.023   3.187
   73WAT    EPW  360   3.720   0.040   3.223
   74WAT      O  361   3.096   0.081   0.895
   74WAT     H1  362   3.152   0.150   0.860
   74WAT     H2  363   3.156   0.009   0.914
   74WAT    EPW  364   3.111   0.081   0.893
   75WAT      O  365   2.289   0.811   0.844
   75WAT     H1  366   2.201   0.788   0.813
   75WAT     H2  367   2.331   0.727   0.864
   75WAT    EPW  368   2.283   0.797   0.843
   76WAT      O  369   1.181   2.836   0.443
   76WAT     H1  370   1.163   2.900   0.512
   76WAT     H2  371   1.261   2.868   0.400
   76WAT    EPW  372   1.189   2.849   0.446
   77WAT      O  373   2.751   4.001   1.313
   77WAT     H1  374   2.709   4.007   1.399
   77WAT     H2  375   2.801   3.920   1.316
   77WAT    EPW  376   2.752   3.991   1.324
   78WAT      O  377   2.376   1.708   3.899
   78WAT     H1  378   2.464   1.671   3.897
   78WAT     H2  379   2.342   1.693   3.811
   78WAT    EPW  380   2.383   1.702   3.887
   79WAT      O  381   2.428   0.796   0.076
   79WAT     H1  382   2.363   0.779   0.145
   79WAT     H2  383   2.461   0.710   0.053
   79WAT    EPW  384   2.423   0.783   0.082
   80WAT      O  385   3.332   3.511   0.839
   80WAT     H1  386   3.314   3.574   0.768
   80WAT     H2  387   3.364   3.565   0.911
   80WAT    EPW  388   3.334   3.527   0.839
   81WAT      O  389   0.612   1.049   2.555
   81WAT     H1  390   0.661   1.061   2.473
   81WAT     H2  391   0.531   1.006   2.528
   81WAT    EPW  392   0.608   1.045   2.540
   82WAT      O  393   1.688   2.398   1.586
   82WAT     H1  394   1.630   2.402   1.510
   82WAT     H2  395   1.640   2.441   1.657
   82WAT    EPW  396   1.674   2.404   1.585
   83WAT      O  397   3.711   3.113   3.696
   83WAT     H1  398   3.680   3.199   3.725
   83WAT     H2  399   3.800   3.130   3.664
   83WAT    EPW  400   3.719   3.127   3.696
   84WAT      O  401   3.093   1.616   0.473
   84WAT     H1  402   3.066   1.524   0.470
   84WAT     H2  403   3.026   1.661   0.421
   84WAT    EPW  404   3.080   1.610   0.466
   85WAT      O  405   1.976   2.009   0.123
   85WAT     H1  406   1.990   1.962   0.205
   85WAT     H2  407   1.994   2.101   0.144
   85WAT    EPW  408   1.980   2.015   0.136
   86WAT      O  409   1.048   0.714   2.572
   86WAT     H1  410   1.139   0.716   2.600
   86WAT     H2  411   1.006   0.650   2.630
   86WAT    EPW  412   1.054   0.706   2.583
   87WAT      O  413   1.347   3.185   0.460
   87WAT     H1  414   1.381   3.096   0.469
   87WAT     H2  415   1.339   3.216   0.550
   87WAT    EPW  416   1.350   3.177   0.473
   88WAT      O  417   1.454   4.030   3.261
   88WAT     H1  418   1.439   3.960   3.198
   88WAT     H2  419   1.548   4.048   3.254
   88WAT    EPW  420   1.465   4.023   3.251
   89WAT      O  421   0.751   1.684   1.535
   89WAT     H1  422   0.660   1.657   1.545
   89WAT     H2  423   0.776   1.656   1.447
   89WAT    EPW  424   0.742   1.677   1.525
   90WAT      O  425   2.534   2.672   3.247
   90WAT     H1  426   2.572   2.730   3.181
   90WAT     H2  427   2.440   2.690   3.244
   90WAT    EPW  428   2.527   2.682   3.238
   91WAT      O  429   0.982   2.079   0.954
   91WAT     H1  430   0.962   2.109   0.865
   91WAT     H2  431   0.897   2.050   0.989
   91WAT    EPW  432   0.968   2.079   0.947
   92WAT      O  433   0.533   1.834   1.762
   92WAT     H1  434   0.569   1.883   1.688
   92WAT     H2  435   0.601   1.840   1.829
   92WAT    EPW  436   0.547   1.842   1.761
   93WAT      O  437   1.799   3.583   3.647
   93WAT     H1  438   1.741   3.622   3.581
   93WAT     H2  439   1.776   3.490   3.647
   93WAT    EPW  440   1.788   3.576   3.638
   94WAT      O  441   2.327   1.887   2.035
   94WAT     H1  442   2.411   1.911   1.994
   94WAT     H2  443   2.261   1.928   1.979
   94WAT    EPW  444   2.330   1.896   2.022
   95WAT      O  445   1.269   1.915   2.662
   95WAT     H1  446   1.244   1.997   2.704
   95WAT     H2  447   1.251   1.929   2.569
   95WAT    EPW  448   1.264   1.928   2.655
   96WAT      O  449   1.558   0.066   1.617
   96WAT     H1  450   1.555  -0.014   1.564
   96WAT     H2  451   1.603   0.040   1.697
   96WAT    EPW  452   1.563   0.052   1.620
   97WAT      O  453   2.636   1.956   2.579
   97WAT     H1  454   2.591   1.884   2.533
   97WAT     H2  455   2.568   1.993   2.635
   97WAT    EPW  456   2.621   1.951   2.580
   98WAT      O  457   2.392   1.444   1.029
   98WAT     H1  458   2.484   1.445   1.002
   98WAT     H2  459   2.393   1.475   1.119
   98WAT    EPW  460   2.404   1.448   1.037
   99WAT      O  461   2.856   0.730   1.629
   99WAT     H1  462   2.829   0.821   1.644
   99WAT     H2  463   2.818   0.682   1.702
   99WAT    EPW  464   2.848   0.736   1.641
  100WAT      O  465   0.230   0.761   2.735
  100WAT     H1  466   0.218   0.683   2.789
  100WAT     H2  467   0.313   0.798   2.765
  100WAT    EPW  468   0.239   0.755   2.746
  101WAT      O  469   1.582   0.758   2.399
  101WAT     H1  470   1.523   0.717   2.463
  101WAT     H2  471   1.536   0.750   2.315
  101WAT    EPW  472   1.568   0.752   2.396
  102WAT      O  473   1.621   2.308   3.715
  102WAT     H1  474   1.528   2.304   3.738
  102WAT     H2  475   1.662   2.240   3.768
  102WAT    EPW  476   1.614   2.298   3.725
  103WAT      O  477   3.682   2.618   0.274
  103WAT     H1  478   3.605   2.662   0.310
  103WAT     H2  479   3.719   2.570   0.348
  103WAT    EPW  480   3.677   2.618   0.289
  104WAT      O  481   0.979   3.237   0.558
  104WAT     H1  482   1.006   3.150   0.587
  104WAT     H2  483   0.980   3.232   0.462
  104WAT    EPW  484   0.983   3.225   0.549
  105WAT      O  485   2.530   3.281   0.249
  105WAT     H1  486   2.558   3.272   0.158
  105WAT     H2  487   2.436   3.262   0.248
  105WAT    EPW  488   2.521   3.277   0.237
  106WAT      O  489   2.851   2.567   3.120
  106WAT     H1  490   2.797   2.645   3.107
  106WAT     H2  491   2.792   2.503   3.159
  106WAT    EPW  492   2.836   2.569   3.123
  107WAT      O  493   2.992   0.889   2.416
  107WAT     H1  494   2.956   0.861   2.332
  107WAT     H2  495   3.024   0.809   2.457
  107WAT    EPW  496   2.992   0.875   2.410
  108WAT      O  497   2.094   0.617   3.687
  108WAT     H1  498   2.131   0.637   3.601
  108WAT     H2  499   2.164   0.637   3.748
  108WAT    EPW  500   2.108   0.622   3.684
  109WAT      O  501   2.388   1.298   3.078
  109WAT     H1  502   2.420   1.220   3.124
  109WAT     H2  503   2.304   1.271   3.042
  109WAT    EPW  504   2.381   1.284   3.079
  110WAT      O  505   3.635   1.196   2.067
  110WAT     H1  506   3.588   1.113   2.082
  110WAT     H2  507   3.603   1.226   1.982
  110WAT    EPW  508   3.624   1.189   2.058
  111WAT      O  509   0.872   3.039   2.242
  111WAT     H1  510   0.788   2.993   2.240
  111WAT     H2  511   0.851   3.128   2.215
  111WAT    EPW  512   0.858   3.045   2.238
  112WAT      O  513   0.281   2.812   1.922
  112WAT     H1  514   0.292   2.750   1.850
  112WAT     H2  515   0.235   2.763   1.990
  112WAT    EPW  516   0.277   2.798   1.922
  113WAT      O  517   2.256   1.145   0.766
  113WAT     H1  518   2.296   1.083   0.828
  113WAT     H2  519   2.214   1.210   0.822
  113WAT    EPW  520   2.256   1.145   0.782
  114WAT      O  521   0.605   2.184   2.174
  114WAT     H1  522   0.616   2.279   2.176
  114WAT     H2  523   0.658   2.155   2.100
  114WAT    EPW  524   0.613   2.192   2.165
  115WAT      O  525   0.414   2.147   1.849
  115WAT     H1  526   0.402   2.154   1.754
  115WAT     H2  527   0.355   2.214   1.885
  115WAT    EPW  528   0.405   2.157   1.841
  116WAT      O  529   3.129   4.044   2.470
  116WAT     H1  530   3.207   4.012   2.423
  116WAT     H2  531   3.163   4.077   2.553
  116WAT    EPW  532   3.144   4.044   2.475
  117WAT      O  533   3.302   2.565   2.525
  117WAT     H1  534   3.253   2.493   2.564
  117WAT     H2  535   3.237   2.611   2.471
  117WAT    EPW  536   3.287   2.562   2.523
  118WAT      O  537   1.992   2.889   2.897
  118WAT     H1  538   1.969   2.814   2.952
  118WAT     H2  539   2.086   2.901   2.909
  118WAT    EPW  540   2.001   2.881   2.906
  119WAT      O  541   0.338   2.643   1.706
  119WAT     H1  542   0.383   2.576   1.757
  119WAT     H2  543   0.251   2.606   1.689
  119WAT    EPW  544   0.332   2.629   1.710
  120WAT      O  545   3.208   3.845   2.934
  120WAT     H1  546   3.255   3.827   2.852
  120WAT     H2  547   3.144   3.913   2.910
  120WAT    EPW  548   3.206   3.852   2.920
  121WAT      O  549   0.494   3.319   0.684
  121WAT     H1  550   0.570   3.293   0.736
  121WAT     H2  551   0.471   3.406   0.716
  121WAT    EPW  552   0.501   3.327   0.695
  122WAT      O  553   1.625   3.565   3.093
  122WAT     H1  554   1.579   3.539   3.173
  122WAT     H2  555   1.658   3.653   3.112
  122WAT    EPW  556   1.623   3.573   3.106
  123WAT      O  557   2.726   4.056   3.450
  123WAT     H1  558   2.820   4.048   3.437
  123WAT     H2  559   2.704   3.986   3.512
  123WAT    EPW  560   2.735   4.045   3.457
  124WAT      O  561   2.949   3.031   0.821
  124WAT     H1  562   2.989   3.056   0.738
  124WAT     H2  563   3.017   2.983   0.867
  124WAT    EPW  564   2.963   3.028   0.816
  125WAT      O  565   1.521   2.784   4.037
  125WAT     H1  566   1.456   2.844   4.073
  125WAT     H2  567   1.501   2.781   3.943
  125WAT    EPW  568   1.510   2.792   4.029
  126WAT      O  569   0.806   3.187   3.751
  126WAT     H1  570   0.874   3.184   3.684
  126WAT     H2  571   0.775   3.097   3.758
  126WAT    EPW  572   0.811   3.175   3.743
  127WAT      O  573   0.032   3.999   3.773
  127WAT     H1  574   0.055   3.913   3.807
  127WAT     H2  575   0.052   4.060   3.844
  127WAT    EPW  576   0.038   3.996   3.787
  128WAT      O  577   3.377   2.945   1.370
  128WAT     H1  578   3.328   2.863   1.375
  128WAT     H2  579   3.414   2.945   1.281
  128WAT    EPW  580   3.376   2.934   1.359
  129WAT      O  581   2.987   0.764   0.384
  129WAT     H1  582   2.897   0.789   0.365
  129WAT     H2  583   2.990   0.751   0.478
  129WAT    EPW  584   2.976   0.765   0.394
  130WAT      O  585   1.964   2.391   3.701
  130WAT     H1  586   2.033   2.446   3.665
  130WAT     H2  587   1.911   2.451   3.754
  130WAT    EPW  588   1.966   2.406   3.703
  131WAT      O  589   0.338   3.457   2.909
  131WAT     H1  590   0.372   3.538   2.948
  131WAT     H2  591   0.359   3.389   2.974
  131WAT    EPW  592   0.345   3.459   2.923
  132WAT      O  593   2.927   2.317   1.753
  132WAT     H1  594   2.945   2.397   1.803
  132WAT     H2  595   3.004   2.305   1.698
  132WAT    EPW  596   2.940   2.326   1.752
  133WAT      O  597   2.986   3.960   1.756
  133WAT     H1  598   3.017   4.046   1.727
  133WAT     H2  599   3.045   3.935   1.827
  133WAT    EPW  600   2.998   3.968   1.762
  134WAT      O  601   0.145   2.197   3.471
  134WAT     H1  602   0.224   2.222   3.518
  134WAT     H2  603   0.075   2.201   3.536
  134WAT    EPW  604   0.146   2.201   3.486
  135WAT      O  605   0.998   2.278   2.986
  135WAT     H1  606   1.029   2.346   3.045
  135WAT     H2  607   0.948   2.325   2.919
  135WAT    EPW  608   0.995   2.293   2.985
  136WAT      O  609   0.881   0.158   1.733
  136WAT     H1  610   0.885   0.177   1.827
  136WAT     H2  611   0.808   0.096   1.725
  136WAT    EPW  612   0.872   0.152   1.745
  137WAT      O  613   1.802   1.346   2.043
  137WAT     H1  614   1.759   1.262   2.028
  137WAT     H2  615   1.783   1.396   1.963
  137WAT    EPW  616   1.794   1.342   2.030
  138WAT      O  617   1.661   3.605   1.919
  138WAT     H1  618   1.668   3.601   2.015
  138WAT     H2  619   1.747   3.578   1.888
  138WAT    EPW  620   1.673   3.601   1.928
  139WAT      O  621   2.935   2.287   2.243
  139WAT     H1  622   2.913   2.229   2.315
  139WAT     H2  623   2.856   2.290   2.190
  139WAT    EPW  624   2.922   2.280   2.245
  140WAT      O  625   0.424   0.105   1.614
  140WAT     H1  626   0.505   0.121   1.565
  140WAT     H2  627   0.397   0.017   1.588
  140WAT    EPW  628   0.431   0.096   1.604
  141WAT      O  629   2.463   0.408   0.691
  141WAT     H1  630   2.403   0.345   0.731
  141WAT     H2  631   2.407   0.458   0.631
  141WAT    EPW  632   2.447   0.406   0.688
  142WAT      O  633   0.177   3.089   1.044
  142WAT     H1  634   0.196   3.135   1.126
  142WAT     H2  635   0.208   3.000   1.059
  142WAT    EPW  636   0.183   3.083   1.057
  143WAT      O  637   2.561   0.250   2.718
  143WAT     H1  638   2.589   0.167   2.757
  143WAT     H2  639   2.569   0.237   2.624
  143WAT    EPW  640   2.566   0.237   2.711
  144WAT      O  641   1.813   3.419   3.937
  144WAT     H1  642   1.789   3.371   3.858
  144WAT     H2  643   1.730   3.451   3.973
  144WAT    EPW  644   1.799   3.417   3.931
  145WAT      O  645   2.972   3.509   2.435
  145WAT     H1  646   2.939   3.435   2.385
  145WAT     H2  647   2.893   3.549   2.473
  145WAT    EPW  648   2.957   3.505   2.433
  146WAT      O  649   2.607   2.988   0.055
  146WAT     H1  650   2.577   2.898   0.061
  146WAT     H2  651   2.529   3.038   0.032
  146WAT    EPW  652   2.593   2.983   0.053
  147WAT      O  653   1.694   0.985   2.535
  147WAT     H1  654   1.633   0.912   2.522
  147WAT     H2  655   1.756   0.978   2.463
  147WAT    EPW  656   1.694   0.974   2.524
  148WAT      O  657   1.850   1.761   2.199
  148WAT     H1  658   1.809   1.839   2.163
  148WAT     H2  659   1.876   1.710   2.123
  148WAT    EPW  660   1.848   1.764   2.185
  149WAT      O  661   3.561   2.052   2.008
  149WAT     H1  662   3.630   2.078   2.069
  149WAT     H2  663   3.532   2.135   1.968
  149WAT    EPW  664   3.566   2.067   2.011
  150WAT      O  665   2.388   3.654   3.975
  150WAT     H1  666   2.466   3.696   3.939
  150WAT     H2  667   2.362   3.710   4.049
  150WAT    EPW  668   2.395   3.667   3.980
  151WAT      O  669   2.205   2.536   2.004
  151WAT     H1  670   2.188   2.630   2.012
  151WAT     H2  671   2.266   2.517   2.075
  151WAT    EPW  672   2.211   2.546   2.014
  152WAT      O  673   2.720   3.420   1.357
  152WAT     H1  674   2.632   3.458   1.365
  152WAT     H2  675   2.772   3.467   1.422
  152WAT    EPW  676   2.715   3.431   1.367
  153WAT      O  677   2.196   2.846   1.895
  153WAT     H1  678   2.170   2.936   1.915
  153WAT     H2  679   2.289   2.852   1.873
  153WAT    EPW  680   2.204   2.859   1.895
  154WAT      O  681   3.098   0.818   2.775
  154WAT     H1  682   3.019   0.813   2.720
  154WAT     H2  683   3.150   0.887   2.736
  154WAT    EPW  684   3.094   0.826   2.762
  155WAT      O  685   1.957   3.359   0.188
  155WAT     H1  686   1.889   3.294   0.170
  155WAT     H2  687   1.926   3.405   0.267
  155WAT    EPW  688   1.944   3.357   0.196
  156WAT      O  689   1.801   3.678   2.461
  156WAT     H1  690   1.720   3.636   2.431
  156WAT     H2  691   1.834   3.725   2.384
  156WAT    EPW  692   1.795   3.679   2.447
  157WAT      O  693   1.205   0.579   0.680
  157WAT     H1  694   1.250   0.661   0.696
  157WAT     H2  695   1.249   0.515   0.736
  157WAT    EPW  696   1.217   0.581   0.689
  158WAT      O  697   1.359   1.807   0.636
  158WAT     H1  698   1.315   1.825   0.719
  158WAT     H2  699   1.445   1.773   0.662
  158WAT    EPW  700   1.365   1.805   0.650
  159WAT      O  701   3.255   1.429   0.048
  159WAT     H1  702   3.345   1.438   0.078
  159WAT     H2  703   3.211   1.383   0.120
  159WAT    EPW  704   3.261   1.424   0.062
  160WAT      O  705   3.346   0.057   3.848
  160WAT     H1  706   3.312  -0.012   3.792
  160WAT     H2  707   3.404   0.012   3.909
  160WAT    EPW  708   3.349   0.042   3.849
  161WAT      O  709   0.144   0.774   0.768
  161WAT     H1  710   0.058   0.760   0.807
  161WAT     H2  711   0.175   0.856   0.807
  161WAT    EPW  712   0.137   0.783   0.778
  162WAT      O  713   0.469   2.482   1.123
  162WAT     H1  714   0.405   2.523   1.181
  162WAT     H2  715   0.546   2.467   1.178
  162WAT    EPW  716   0.470   2.485   1.138
  163WAT      O  717   1.979   1.092   1.052
  163WAT     H1  718   2.022   1.170   1.017
  163WAT     H2  719   1.930   1.124   1.128
  163WAT    EPW  720   1.978   1.106   1.058
  164WAT      O  721   2.395   1.923   1.634
  164WAT     H1  722   2.304   1.950   1.620
  164WAT     H2  723   2.406   1.846   1.579
  164WAT    EPW  724   2.384   1.917   1.625
  165WAT      O  725   3.235   2.118   2.369
  165WAT     H1  726   3.310   2.169   2.398
  165WAT     H2  727   3.254   2.028   2.396
  165WAT    EPW  728   3.247   2.113   2.376
  166WAT      O  729   1.198   1.894   0.884
  166WAT     H1  730   1.124   1.951   0.905
  166WAT     H2  731   1.255   1.898   0.961
  166WAT    EPW  732   1.196   1.902   0.897
  167WAT      O  733   1.076   0.681   3.784
  167WAT     H1  734   1.055   0.589   3.771
  167WAT     H2  735   1.009   0.728   3.734
  167WAT    EPW  736   1.064   0.675   3.776
  168WAT      O  737   2.204   3.260   0.674
  168WAT     H1  738   2.113   3.231   0.673
  168WAT     H2  739   2.203   3.341   0.726
  168WAT    EPW  740   2.192   3.267   0.681
  169WAT      O  741   2.138   1.266   0.261
  169WAT     H1  742   2.131   1.212   0.182
  169WAT     H2  743   2.113   1.353   0.232
  169WAT    EPW  744   2.134   1.270   0.247
  170WAT      O  745   0.679   0.554   2.162
  170WAT     H1  746   0.583   0.559   2.157
  170WAT     H2  747   0.708   0.646   2.161
  170WAT    EPW  748   0.670   0.567   2.161
  171WAT      O  749   1.218   1.644   2.977
  171WAT     H1  750   1.185   1.579   3.039
  171WAT     H2  751   1.299   1.605   2.943
  171WAT    EPW  752   1.224   1.630   2.980
  172WAT      O  753   2.400   1.652   0.747
  172WAT     H1  754   2.405   1.565   0.708
  172WAT     H2  755   2.488   1.668   0.780
  172WAT    EPW  756   2.412   1.643   0.746
  173WAT      O  757   3.394   2.136   2.721
  173WAT     H1  758   3.409   2.218   2.769
  173WAT     H2  759   3.300   2.120   2.731
  173WAT    EPW  760   3.384   2.145   2.729
  174WAT      O  761   2.351   2.968   3.421
  174WAT     H1  762   2.328   2.895   3.363
  174WAT     H2  763   2.290   2.960   3.495
  174WAT    EPW  764   2.340   2.957   3.423
  175WAT      O  765   1.361   0.114   0.827
  175WAT     H1  766   1.266   0.102   0.827
  175WAT     H2  767   1.387   0.100   0.918
  175WAT    EPW  768   1.352   0.110   0.839
  176WAT      O  769   0.986   0.292   3.218
  176WAT     H1  770   1.006   0.346   3.295
  176WAT     H2  771   0.892   0.275   3.225
  176WAT    EPW  772   0.976   0.297   3.229
  177WAT      O  773   2.526   1.455   1.679
  177WAT     H1  774   2.563   1.399   1.747
  177WAT     H2  775   2.494   1.532   1.727
  177WAT    EPW  776   2.527   1.458   1.695
  178WAT      O  777   2.360   0.473   3.200
  178WAT     H1  778   2.435   0.417   3.218
  178WAT     H2  779   2.309   0.471   3.281
  178WAT    EPW  780   2.363   0.466   3.213
  179WAT      O  781   0.036   3.349   0.616
  179WAT     H1  782   0.036   3.354   0.520
  179WAT     H2  783  -0.055   3.332   0.639
  179WAT    EPW  784   0.024   3.347   0.606
  180WAT      O  785   0.380   3.409   3.638
  180WAT     H1  786   0.287   3.388   3.633
  180WAT     H2  787   0.422   3.326   3.661
  180WAT    EPW  788   0.373   3.396   3.640
  181WAT      O  789   1.057   0.906   1.094
  181WAT     H1  790   1.107   0.883   1.016
  181WAT     H2  791   1.112   0.878   1.167
  181WAT    EPW  792   1.071   0.899   1.093
  182WAT      O  793   2.258   3.435   2.321
  182WAT     H1  794   2.193   3.373   2.289
  182WAT     H2  795   2.315   3.451   2.246
  182WAT    EPW  796   2.257   3.429   2.307
  183WAT      O  797   1.493   2.596   2.466
  183WAT     H1  798   1.516   2.626   2.378
  183WAT     H2  799   1.569   2.546   2.494
  183WAT    EPW  800   1.506   2.593   2.458
  184WAT      O  801   0.725   0.707   0.639
  184WAT     H1  802   0.803   0.739   0.684
  184WAT     H2  803   0.749   0.621   0.605
  184WAT    EPW  804   0.738   0.700   0.641
  185WAT      O  805   1.258   0.917   2.167
  185WAT     H1  806   1.258   0.839   2.223
  185WAT     H2  807   1.166   0.940   2.157
  185WAT    EPW  808   1.246   0.910   2.173
  186WAT      O  809   0.969   0.052   0.617
  186WAT     H1  810   0.958  -0.041   0.599
  186WAT     H2  811   1.039   0.080   0.559
  186WAT    EPW  812   0.977   0.043   0.607
  187WAT      O  813   3.744   1.206   3.132
  187WAT     H1  814   3.761   1.180   3.041
  187WAT     H2  815   3.801   1.282   3.145
  187WAT    EPW  816   3.754   1.212   3.121
  188WAT      O  817   3.386   0.637   3.926
  188WAT     H1  818   3.449   0.586   3.978
  188WAT     H2  819   3.409   0.618   3.835
  188WAT    EPW  820   3.397   0.628   3.921
  189WAT      O  821   3.296   1.022   0.957
  189WAT     H1  822   3.384   0.985   0.949
  189WAT     H2  823   3.270   1.004   1.047
  189WAT    EPW  824   3.304   1.015   0.967
  190WAT      O  825   3.559   1.931   1.296
  190WAT     H1  826   3.595   1.857   1.246
  190WAT     H2  827   3.529   1.892   1.378
  190WAT    EPW  828   3.560   1.916   1.300
  191WAT      O  829   3.284   0.925   2.321
  191WAT     H1  830   3.189   0.910   2.317
  191WAT     H2  831   3.293   1.017   2.346
  191WAT    EPW  832   3.273   0.935   2.324
  192WAT      O  833   3.268   0.587   2.859
  192WAT     H1  834   3.218   0.664   2.887
  192WAT     H2  835   3.216   0.512   2.889
  192WAT    EPW  836   3.255   0.587   2.867
  193WAT      O  837   0.301   3.881   1.845
  193WAT     H1  838   0.209   3.858   1.855
  193WAT     H2  839   0.315   3.951   1.909
  193WAT    EPW  840   0.291   3.887   1.855
  194WAT      O  841   2.353   1.154   2.354
  194WAT     H1  842   2.401   1.234   2.332
  194WAT     H2  843   2.386   1.130   2.441
  194WAT    EPW  844   2.363   1.161   2.363
  195WAT      O  845   3.413   0.805   0.780
  195WAT     H1  846   3.434   0.795   0.687
  195WAT     H2  847   3.482   0.756   0.825
  195WAT    EPW  848   3.425   0.798   0.773
  196WAT      O  849   0.395   0.756   1.717
  196WAT     H1  850   0.396   0.710   1.633
  196WAT     H2  851   0.435   0.841   1.698
  196WAT    EPW  852   0.400   0.761   1.703
  197WAT      O  853   0.579   3.844   2.780
  197WAT     H1  854   0.584   3.793   2.860
  197WAT     H2  855   0.604   3.933   2.806
  197WAT    EPW  856   0.583   3.849   2.794
  198WAT      O  857   1.361   3.777   2.684
  198WAT     H1  858   1.312   3.700   2.713
  198WAT     H2  859   1.417   3.745   2.614
  198WAT    EPW  860   1.362   3.763   2.679
  199WAT      O  861   2.606   0.833   2.456
  199WAT     H1  862   2.694   0.845   2.492
  199WAT     H2  863   2.548   0.840   2.532
  199WAT    EPW  864   2.610   0.835   2.471
  200WAT      O  865   0.817   0.498   1.837
  200WAT     H1  866   0.755   0.425   1.838
  200WAT     H2  867   0.764   0.575   1.855
  200WAT    EPW  868   0.802   0.498   1.839
  201WAT      O  869   0.755   3.609   0.568
  201WAT     H1  870   0.731   3.687   0.520
  201WAT     H2  871   0.730   3.536   0.511
  201WAT    EPW  872   0.749   3.609   0.554
  202WAT      O  873   2.577   2.988   0.381
  202WAT     H1  874   2.547   3.071   0.343
  202WAT     H2  875   2.523   2.976   0.459
  202WAT    EPW  876   2.566   2.997   0.386
  203WAT      O  877   3.106   1.404   2.365
  203WAT     H1  878   3.110   1.450   2.281
  203WAT     H2  879   3.035   1.340   2.354
  203WAT    EPW  880   3.097   1.402   2.352
  204WAT      O  881   2.522   1.733   2.443
  204WAT     H1  882   2.429   1.728   2.465
  204WAT     H2  883   2.536   1.661   2.381
  204WAT    EPW  884   2.512   1.723   2.438
  205WAT      O  885   2.346   0.310   2.918
  205WAT     H1  886   2.370   0.400   2.896
  205WAT     H2  887   2.382   0.257   2.847
  205WAT    EPW  888   2.354   0.315   2.906
  206WAT      O  889   2.423   3.091   2.612
  206WAT     H1  890   2.517   3.075   2.613
  206WAT     H2  891   2.413   3.176   2.570
  206WAT    EPW  892   2.434   3.100   2.606
  207WAT      O  893   2.482   2.764   0.218
  207WAT     H1  894   2.525   2.839   0.260
  207WAT     H2  895   2.545   2.693   0.224
  207WAT    EPW  896   2.496   2.765   0.225
  208WAT      O  897   1.438   4.107   2.715
  208WAT     H1  898   1.511   4.159   2.749
  208WAT     H2  899   1.454   4.019   2.749
  208WAT    EPW  900   1.449   4.103   2.724
  209WAT      O  901   2.680   3.236   1.139
  209WAT     H1  902   2.709   3.303   1.200
  209WAT     H2  903   2.589   3.260   1.118
  209WAT    EPW  904   2.672   3.248   1.144
  210WAT      O  905   3.692   2.152   1.573
  210WAT     H1  906   3.623   2.192   1.520
  210WAT     H2  907   3.649   2.128   1.655
  210WAT    EPW  908   3.677   2.154   1.577
  211WAT      O  909   2.682   2.308   2.088
  211WAT     H1  910   2.699   2.221   2.052
  211WAT     H2  911   2.650   2.291   2.176
  211WAT    EPW  912   2.680   2.294   2.095
  212WAT      O  913   2.419   3.707   3.326
  212WAT     H1  914   2.426   3.708   3.421
  212WAT     H2  915   2.471   3.632   3.298
  212WAT    EPW  916   2.426   3.698   3.334
  213WAT      O  917   0.386   3.922   1.564
  213WAT     H1  918   0.341   3.912   1.648
  213WAT     H2  919   0.448   3.849   1.562
  213WAT    EPW  920   0.388   3.911   1.575
  214WAT      O  921   1.121   1.974   0.333
  214WAT     H1  922   1.047   2.024   0.367
  214WAT     H2  923   1.193   1.994   0.393
  214WAT    EPW  924   1.120   1.984   0.345
  215WAT      O  925   2.178   0.387   1.258
  215WAT     H1  926   2.214   0.423   1.339
  215WAT     H2  927   2.212   0.297   1.255
  215WAT    EPW  928   2.187   0.379   1.269
  216WAT      O  929   1.876   1.252   1.266
  216WAT     H1  930   1.944   1.320   1.268
  216WAT     H2  931   1.795   1.299   1.286
  216WAT    EPW  932   1.875   1.267   1.269
  217WAT      O  933   1.892   0.828   3.592
  217WAT     H1  934   1.839   0.881   3.651
  217WAT     H2  935   1.951   0.781   3.650
  217WAT    EPW  936   1.893   0.829   3.607
  218WAT      O  937   2.167   0.710   3.438
  218WAT     H1  938   2.103   0.725   3.368
  218WAT     H2  939   2.250   0.740   3.402
  218WAT    EPW  940   2.169   0.716   3.424
  219WAT      O  941   0.727   3.152   3.102
  219WAT     H1  942   0.661   3.083   3.093
  219WAT     H2  943   0.760   3.143   3.191
  219WAT    EPW  944   0.723   3.142   3.112
  220WAT      O  945   3.487   2.655   2.772
  220WAT     H1  946   3.447   2.705   2.701
  220WAT     H2  947   3.458   2.698   2.852
  220WAT    EPW  948   3.478   2.667   2.773
  221WAT      O  949   1.824   0.597   3.925
  221WAT     H1  950   1.764   0.600   3.851
  221WAT     H2  951   1.877   0.676   3.916
  221WAT    EPW  952   1.823   0.608   3.914
  222WAT      O  953   1.088   3.419   3.078
  222WAT     H1  954   1.080   3.467   3.160
  222WAT     H2  955   1.172   3.373   3.085
  222WAT    EPW  956   1.098   3.419   3.090
  223WAT      O  957   0.812   4.048   2.744
  223WAT     H1  958   0.874   3.987   2.783
  223WAT     H2  959   0.820   4.034   2.650
  223WAT    EPW  960   0.821   4.038   2.737
  224WAT      O  961   1.976   2.093   2.101
  224WAT     H1  962   1.880   2.095   2.095
  224WAT     H2  963   1.999   2.176   2.142
  224WAT    EPW  964   1.966   2.104   2.106
  225WAT      O  965   2.192   1.647   0.958
  225WAT     H1  966   2.175   1.675   1.047
  225WAT     H2  967   2.282   1.615   0.959
  225WAT    EPW  968   2.202   1.647   0.970
  226WAT      O  969   3.269   0.517   1.358
  226WAT     H1  970   3.263   0.594   1.414
  226WAT     H2  971   3.182   0.478   1.362
  226WAT    EPW  972   3.257   0.522   1.366
  227WAT      O  973   1.316   0.120   4.057
  227WAT     H1  974   1.339   0.140   3.966
  227WAT     H2  975   1.221   0.129   4.060
  227WAT    EPW  976   1.307   0.124   4.045
  228WAT      O  977   3.575   2.172   3.099
  228WAT     H1  978   3.612   2.104   3.042
  228WAT     H2  979   3.646   2.193   3.160
  228WAT    EPW  980   3.590   2.166   3.099
  229WAT      O  981   0.214   3.499   3.352
  229WAT     H1  982   0.166   3.442   3.292
  229WAT     H2  983   0.300   3.511   3.310
  229WAT    EPW  984   0.219   3.493   3.338
  230WAT      O  985   3.655   1.075   1.747
  230WAT     H1  986   3.597   1.143   1.781
  230WAT     H2  987   3.737   1.087   1.795
  230WAT    EPW  988   3.658   1.085   1.757
  231WAT      O  989   0.507   1.455   2.089
  231WAT     H1  990   0.497   1.540   2.131
  231WAT     H2  991   0.576   1.469   2.024
  231WAT    EPW  992   0.515   1.468   2.086
  232WAT      O  993   0.073   3.711   0.095
  232WAT     H1  994   0.168   3.707   0.084
  232WAT     H2  995   0.052   3.633   0.146
  232WAT    EPW  996   0.083   3.700   0.100
  233WAT      O  997   1.497   4.088   0.603
  233WAT     H1  998   1.461   4.140   0.674
  233WAT     H2  999   1.424   4.078   0.542
  233WAT    EPW 1000   1.482   4.093   0.604
  234WAT      O 1001   3.016   1.680   1.841
  234WAT     H1 1002   2.972   1.597   1.824
  234WAT     H2 1003   3.108   1.663   1.822
  234WAT    EPW 1004   3.022   1.667   1.837
  235WAT      O 1005   2.802   4.101   1.040
  235WAT     H1 1006   2.764   4.066   1.121
  235WAT     H2 1007   2.884   4.141   1.068
  235WAT    EPW 1008   2.808   4.102   1.055
  236WAT      O 1009   2.762   1.704   2.219
  236WAT     H1 1010   2.721   1.764   2.282
  236WAT     H2 1011   2.856   1.721   2.229
  236WAT    EPW 1012   2.769   1.715   2.229
  237WAT      O 1013   0.848   1.218   3.597
  237WAT     H1 1014   0.830   1.147   3.536
  237WAT     H2 1015   0.940   1.207   3.621
  237WAT    EPW 1016   0.858   1.207   3.592
  238WAT      O 1017   3.469   1.555   3.613
  238WAT     H1 1018   3.420   1.506   3.547
  238WAT     H2 1019   3.486   1.491   3.683
  238WAT    EPW 1020   3.465   1.540   3.614
  239WAT      O 1021   3.283   3.033   1.655
  239WAT     H1 1022   3.352   3.086   1.614
  239WAT     H2 1023   3.327   2.984   1.723
  239WAT    EPW 1024   3.298   3.034   1.658
  240WAT      O 1025   1.615   2.919   3.071
  240WAT     H1 1026   1.639   3.010   3.056
  240WAT     H2 1027   1.581   2.889   2.987
  240WAT    EPW 1028   1.614   2.927   3.058
  241WAT      O 1029   2.257   2.021   3.175
  241WAT     H1 1030   2.276   1.998   3.266
  241WAT     H2 1031   2.200   2.098   3.181
  241WAT    EPW 1032   2.252   2.028   3.188
  242WAT      O 1033   1.431   2.977   3.545
  242WAT     H1 1034   1.526   2.975   3.531
  242WAT     H2 1035   1.395   2.964   3.457
  242WAT    EPW 1036   1.439   2.975   3.531
  243WAT      O 1037   2.832   2.394   3.429
  243WAT     H1 1038   2.916   2.355   3.406
  243WAT     H2 1039   2.839   2.485   3.402
  243WAT    EPW 1040   2.844   2.401   3.423
  244WAT      O 1041   2.708   0.771   0.306
  244WAT     H1 1042   2.647   0.738   0.371
  244WAT     H2 1043   2.725   0.862   0.333
  244WAT    EPW 1044   2.702   0.779   0.318
  245WAT      O 1045   2.818   2.760   1.988
  245WAT     H1 1046   2.807   2.750   2.082
  245WAT     H2 1047   2.860   2.845   1.978
  245WAT    EPW 1048   2.822   2.770   1.999
  246WAT      O 1049   3.172   1.685   4.047
  246WAT     H1 1050   3.246   1.719   3.997
  246WAT     H2 1051   3.194   1.593   4.064
  246WAT    EPW 1052   3.184   1.677   4.042
  247WAT      O 1053   1.917   3.491   1.836
  247WAT     H1 1054   2.012   3.482   1.830
  247WAT     H2 1055   1.895   3.456   1.922
  247WAT    EPW 1056   1.927   3.485   1.846
  248WAT      O 1057   0.074   0.976   3.895
  248WAT     H1 1058   0.049   0.909   3.830
  248WAT     H2 1059   0.104   1.050   3.842
  248WAT    EPW 1060   0.074   0.977   3.879
  249WAT      O 1061   2.389   0.875   2.641
  249WAT     H1 1062   2.311   0.882   2.696
  249WAT     H2 1063   2.406   0.964   2.611
  249WAT    EPW 1064   2.381   0.888   2.644
  250WAT      O 1065   2.910   0.616   3.616
  250WAT     H1 1066   2.850   0.678   3.575
  250WAT     H2 1067   2.995   0.637   3.578
  250WAT    EPW 1068   2.914   0.627   3.606
  251WAT      O 1069   2.992   0.320   2.280
  251WAT     H1 1070   3.058   0.355   2.340
  251WAT     H2 1071   3.042   0.284   2.207
  251WAT    EPW 1072   3.008   0.320   2.279
  252WAT      O 1073   0.551   3.695   1.906
  252WAT     H1 1074   0.544   3.605   1.874
  252WAT     H2 1075   0.479   3.742   1.863
  252WAT    EPW 1076   0.541   3.689   1.896
  253WAT      O 1077   2.767   0.938   1.997
  253WAT     H1 1078   2.790   1.003   1.930
  253WAT     H2 1079   2.740   0.990   2.073
  253WAT    EPW 1080   2.766   0.954   1.998
  254WAT      O 1081   1.591   0.522   0.469
  254WAT     H1 1082   1.516   0.493   0.520
  254WAT     H2 1083   1.565   0.506   0.378
  254WAT    EPW 1084   1.578   0.516   0.464
  255WAT      O 1085   0.539   0.058   0.337
  255WAT     H1 1086   0.451   0.078   0.367
  255WAT     H2 1087   0.527   0.023   0.248
  255WAT    EPW 1088   0.526   0.056   0.329
  256WAT      O 1089   1.817   0.550   2.654
  256WAT     H1 1090   1.907   0.536   2.625
  256WAT     H2 1091   1.768   0.479   2.611
  256WAT    EPW 1092   1.822   0.539   2.644
  257WAT      O 1093   1.030   0.390   0.402
  257WAT     H1 1094   1.095   0.344   0.454
  257WAT     H2 1095   0.960   0.411   0.464
  257WAT    EPW 1096   1.029   0.387   0.417
  258WAT      O 1097   0.527   2.042   2.721
  258WAT     H1 1098   0.550   2.121   2.769
  258WAT     H2 1099   0.493   1.982   2.787
  258WAT    EPW 1100   0.526   2.044   2.736
  259WAT      O 1101   2.962   1.397   2.659
  259WAT     H1 1102   2.909   1.428   2.732
  259WAT     H2 1103   2.932   1.307   2.645
  259WAT    EPW 1104   2.951   1.389   2.667
  260WAT      O 1105   1.033   0.344   3.511
  260WAT     H1 1106   1.128   0.351   3.504
  260WAT     H2 1107   1.016   0.252   3.530
  260WAT    EPW 1108   1.043   0.333   3.512
  261WAT      O 1109   1.553   0.895   2.834
  261WAT     H1 1110   1.482   0.911   2.771
  261WAT     H2 1111   1.633   0.903   2.782
  261WAT    EPW 1112   1.554   0.898   2.818
  262WAT      O 1113   1.137   1.351   1.085
  262WAT     H1 1114   1.232   1.361   1.077
  262WAT     H2 1115   1.104   1.441   1.094
  262WAT    EPW 1116   1.145   1.364   1.085
  263WAT      O 1117   2.767   1.843   2.866
  263WAT     H1 1118   2.808   1.775   2.919
  263WAT     H2 1119   2.678   1.812   2.852
  263WAT    EPW 1120   2.761   1.830   2.871
  264WAT      O 1121   1.776   0.267   1.596
  264WAT     H1 1122   1.810   0.272   1.685
  264WAT     H2 1123   1.711   0.196   1.598
  264WAT    EPW 1124   1.772   0.258   1.608
  265WAT      O 1125   0.237   1.935   1.506
  265WAT     H1 1126   0.186   1.966   1.581
  265WAT     H2 1127   0.177   1.879   1.457
  265WAT    EPW 1128   0.222   1.932   1.510
  266WAT      O 1129   3.063   1.009   1.487
  266WAT     H1 1130   3.079   0.917   1.465
  266WAT     H2 1131   2.970   1.021   1.471
  266WAT    EPW 1132   3.053   0.998   1.482
  267WAT      O 1133   1.206   1.242   1.563
  267WAT     H1 1134   1.170   1.317   1.517
  267WAT     H2 1135   1.206   1.268   1.656
  267WAT    EPW 1136   1.201   1.255   1.570
  268WAT      O 1137   0.701   2.288   2.556
  268WAT     H1 1138   0.655   2.370   2.539
  268WAT     H2 1139   0.778   2.291   2.499
  268WAT    EPW 1140   0.705   2.299   2.546
  269WAT      O 1141   0.319   0.345   1.462
  269WAT     H1 1142   0.248   0.368   1.521
  269WAT     H2 1143   0.346   0.257   1.489
  269WAT    EPW 1144   0.313   0.337   1.473
  270WAT      O 1145   0.965   1.976   2.468
  270WAT     H1 1146   0.969   1.954   2.561
  270WAT     H2 1147   0.983   1.894   2.423
  270WAT    EPW 1148   0.968   1.963   2.474
  271WAT      O 1149   3.035   3.872   1.122
  271WAT     H1 1150   3.097   3.856   1.051
  271WAT     H2 1151   3.042   3.966   1.138
  271WAT    EPW 1152   3.044   3.882   1.114
  272WAT      O 1153   2.506   2.100   0.743
  272WAT     H1 1154   2.585   2.062   0.705
  272WAT     H2 1155   2.538   2.158   0.812
  272WAT    EPW 1156   2.520   2.103   0.747
  273WAT      O 1157   0.848   1.522   2.913
  273WAT     H1 1158   0.856   1.569   2.996
  273WAT     H2 1159   0.855   1.590   2.846
  273WAT    EPW 1160   0.850   1.537   2.915
  274WAT      O 1161   1.362   2.750   1.899
  274WAT     H1 1162   1.319   2.835   1.894
  274WAT     H2 1163   1.333   2.713   1.983
  274WAT    EPW 1164   1.352   2.756   1.909
  275WAT      O 1165   2.753   1.036   0.643
  275WAT     H1 1166   2.766   1.048   0.549
  275WAT     H2 1167   2.812   1.099   0.684
  275WAT    EPW 1168   2.763   1.046   0.636
  276WAT      O 1169   1.842   1.159   3.218
  276WAT     H1 1170   1.804   1.237   3.258
  276WAT     H2 1171   1.928   1.151   3.260
  276WAT    EPW 1172   1.848   1.169   3.229
  277WAT      O 1173   2.076   1.907   1.872
  277WAT     H1 1174   2.048   1.972   1.936
  277WAT     H2 1175   2.044   1.824   1.907
  277WAT    EPW 1176   2.068   1.905   1.885
  278WAT      O 1177   1.156   1.721   3.451
  278WAT     H1 1178   1.231   1.674   3.414
  278WAT     H2 1179   1.184   1.812   3.456
  278WAT    EPW 1180   1.170   1.727   3.447
  279WAT      O 1181   0.079   2.509   0.503
  279WAT     H1 1182   0.104   2.544   0.588
  279WAT     H2 1183   0.162   2.494   0.458
  279WAT    EPW 1184   0.093   2.512   0.508
  280WAT      O 1185   0.371   1.562   1.844
  280WAT     H1 1186   0.340   1.488   1.897
  280WAT     H2 1187   0.458   1.536   1.814
  280WAT    EPW 1188   0.378   1.549   1.847
  281WAT      O 1189   0.496   0.960   0.710
  281WAT     H1 1190   0.591   0.972   0.698
  281WAT     H2 1191   0.488   0.877   0.756
  281WAT    EPW 1192   0.508   0.951   0.714
  282WAT      O 1193   1.010   3.075   3.570
  282WAT     H1 1194   1.007   2.991   3.616
  282WAT     H2 1195   1.041   3.053   3.482
  282WAT    EPW 1196   1.014   3.061   3.564
  283WAT      O 1197   1.304   3.573   1.665
  283WAT     H1 1198   1.271   3.656   1.631
  283WAT     H2 1199   1.398   3.574   1.642
  283WAT    EPW 1200   1.312   3.584   1.657
  284WAT      O 1201   2.779   0.714   3.877
  284WAT     H1 1202   2.808   0.685   3.790
  284WAT     H2 1203   2.753   0.634   3.922
  284WAT    EPW 1204   2.780   0.700   3.872
  285WAT      O 1205   3.606   3.270   1.177
  285WAT     H1 1206   3.575   3.180   1.170
  285WAT     H2 1207   3.526   3.322   1.188
  285WAT    EPW 1208   3.591   3.265   1.177
  286WAT      O 1209   3.223   2.614   0.936
  286WAT     H1 1210   3.311   2.639   0.906
  286WAT     H2 1211   3.192   2.553   0.869
  286WAT    EPW 1212   3.230   2.609   0.923
  287WAT      O 1213   1.738   2.788   2.335
  287WAT     H1 1214   1.783   2.741   2.405
  287WAT     H2 1215   1.683   2.723   2.293
  287WAT    EPW 1216   1.737   2.773   2.339
  288WAT      O 1217   1.795   1.806   1.061
  288WAT     H1 1218   1.852   1.874   1.026
  288WAT     H2 1219   1.829   1.790   1.149
  288WAT    EPW 1220   1.807   1.813   1.068
  289WAT      O 1221   0.394   1.677   0.030
  289WAT     H1 1222   0.314   1.726   0.012
  289WAT     H2 1223   0.448   1.689  -0.048
  289WAT    EPW 1224   0.390   1.685   0.018
  290WAT      O 1225   1.451   2.244   0.413
  290WAT     H1 1226   1.494   2.323   0.445
  290WAT     H2 1227   1.510   2.173   0.438
  290WAT    EPW 1228   1.464   2.245   0.421
  291WAT      O 1229   1.064   1.691   2.380
  291WAT     H1 1230   1.151   1.709   2.417
  291WAT     H2 1231   1.074   1.707   2.287
  291WAT    EPW 1232   1.077   1.695   2.373
  292WAT      O 1233   0.689   3.670   0.084
  292WAT     H1 1234   0.720   3.612   0.015
  292WAT     H2 1235   0.724   3.633   0.165
  292WAT    EPW 1236   0.697   3.658   0.086
  293WAT      O 1237   2.422   3.272   1.039
  293WAT     H1 1238   2.380   3.186   1.046
  293WAT     H2 1239   2.361   3.332   1.081
  293WAT    EPW 1240   2.409   3.269   1.046
  294WAT      O 1241   3.130   1.638   2.847
  294WAT     H1 1242   3.202   1.608   2.903
  294WAT     H2 1243   3.057   1.651   2.907
  294WAT    EPW 1244   3.130   1.636   2.862
  295WAT      O 1245   3.549   2.753   3.095
  295WAT     H1 1246   3.618   2.773   3.032
  295WAT     H2 1247   3.586   2.686   3.152
  295WAT    EPW 1248   3.563   2.747   3.094
  296WAT      O 1249   1.733   0.858   3.331
  296WAT     H1 1250   1.777   0.832   3.412
  296WAT     H2 1251   1.766   0.945   3.313
  296WAT    EPW 1252   1.743   0.866   3.339
  297WAT      O 1253   2.446   0.598   0.901
  297WAT     H1 1254   2.460   0.529   0.837
  297WAT     H2 1255   2.527   0.648   0.902
  297WAT    EPW 1256   2.458   0.596   0.893
  298WAT      O 1257   1.661   1.661   3.614
  298WAT     H1 1258   1.708   1.723   3.670
  298WAT     H2 1259   1.609   1.609   3.675
  298WAT    EPW 1260   1.660   1.662   3.629
  299WAT      O 1261   0.949   0.941   2.973
  299WAT     H1 1262   0.978   1.030   2.954
  299WAT     H2 1263   0.877   0.952   3.034
  299WAT    EPW 1264   0.943   0.954   2.978
  300WAT      O 1265   3.299   1.752   0.879
  300WAT     H1 1266   3.344   1.730   0.798
  300WAT     H2 1267   3.352   1.711   0.948
  300WAT    EPW 1268   3.312   1.744   0.878
  301WAT      O 1269   0.773   0.134   2.970
  301WAT     H1 1270   0.766   0.229   2.958
  301WAT     H2 1271   0.721   0.097   2.899
  301WAT    EPW 1272   0.765   0.142   2.959
  302WAT      O 1273   0.216   3.959   2.978
  302WAT     H1 1274   0.149   4.005   2.926
  302WAT     H2 1275   0.244   4.023   3.043
  302WAT    EPW 1276   0.211   3.973   2.980
  303WAT      O 1277   1.156   0.368   1.740
  303WAT     H1 1278   1.114   0.371   1.826
  303WAT     H2 1279   1.250   0.374   1.759
  303WAT    EPW 1280   1.163   0.369   1.754
  304WAT      O 1281   1.339   0.730   3.134
  304WAT     H1 1282   1.314   0.768   3.049
  304WAT     H2 1283   1.259   0.687   3.165
  304WAT    EPW 1284   1.325   0.730   3.127
  305WAT      O 1285   3.246   3.973   0.552
  305WAT     H1 1286   3.211   3.970   0.463
  305WAT     H2 1287   3.197   3.904   0.599
  305WAT    EPW 1288   3.235   3.963   0.547
  306WAT      O 1289   0.456   4.082   3.363
  306WAT     H1 1290   0.534   4.067   3.310
  306WAT     H2 1291   0.488   4.095   3.452
  306WAT    EPW 1292   0.470   4.082   3.368
  307WAT      O 1293   3.059   2.373   0.233
  307WAT     H1 1294   3.003   2.345   0.160
  307WAT     H2 1295   3.014   2.341   0.311
  307WAT    EPW 1296   3.046   2.365   0.234
  308WAT      O 1297   3.038   1.686   2.257
  308WAT     H1 1298   3.061   1.619   2.193
  308WAT     H2 1299   3.049   1.769   2.211
  308WAT    EPW 1300   3.042   1.688   2.243
  309WAT      O 1301   0.289   3.927   1.285
  309WAT     H1 1302   0.319   3.927   1.376
  309WAT     H2 1303   0.365   3.954   1.234
  309WAT    EPW 1304   0.303   3.930   1.290
  310WAT      O 1305   0.382   2.382   3.914
  310WAT     H1 1306   0.341   2.377   4.000
  310WAT     H2 1307   0.331   2.324   3.858
  310WAT    EPW 1308   0.370   2.374   3.918
  311WAT      O 1309   2.608   1.563   3.950
  311WAT     H1 1310   2.693   1.576   3.992
  311WAT     H2 1311   2.609   1.471   3.924
  311WAT    EPW 1312   2.620   1.552   3.952
  312WAT      O 1313   0.223   1.013   0.883
  312WAT     H1 1314   0.173   1.081   0.836
  312WAT     H2 1315   0.314   1.041   0.874
  312WAT    EPW 1316   0.228   1.026   0.875
  313WAT      O 1317   1.949   0.527   1.734
  313WAT     H1 1318   1.880   0.591   1.746
  313WAT     H2 1319   1.936   0.493   1.645
  313WAT    EPW 1320   1.938   0.531   1.724
  314WAT      O 1321   0.950   1.166   1.150
  314WAT     H1 1322   0.989   1.083   1.122
  314WAT     H2 1323   1.013   1.233   1.122
  314WAT    EPW 1324   0.964   1.164   1.142
  315WAT      O 1325   0.034   3.066   3.283
  315WAT     H1 1326   0.024   3.148   3.234
  315WAT     H2 1327   0.061   3.094   3.370
  315WAT    EPW 1328   0.036   3.081   3.288
  316WAT      O 1329   2.968   0.409   1.320
  316WAT     H1 1330   2.984   0.399   1.227
  316WAT     H2 1331   2.922   0.493   1.328
  316WAT    EPW 1332   2.964   0.419   1.309
  317WAT      O 1333   0.348   0.841   0.500
  317WAT     H1 1334   0.324   0.919   0.451
  317WAT     H2 1335   0.376   0.874   0.585
  317WAT    EPW 1336   0.348   0.855   0.505
  318WAT      O 1337   2.105   3.986   1.271
  318WAT     H1 1338   2.102   4.043   1.347
  318WAT     H2 1339   2.148   4.037   1.203
  318WAT    EPW 1340   2.110   4.000   1.272
  319WAT      O 1341   3.485   2.408   2.186
  319WAT     H1 1342   3.395   2.379   2.202
  319WAT     H2 1343   3.503   2.471   2.256
  319WAT    EPW 1344   3.476   2.412   2.197
  320WAT      O 1345   3.529   1.348   2.498
  320WAT     H1 1346   3.584   1.284   2.543
  320WAT     H2 1347   3.568   1.357   2.411
  320WAT    EPW 1348   3.542   1.341   2.492
  321WAT      O 1349   0.738   3.529   3.599
  321WAT     H1 1350   0.690   3.603   3.562
  321WAT     H2 1351   0.827   3.539   3.567
  321WAT    EPW 1352   0.743   3.540   3.590
  322WAT      O 1353   1.791   3.670   0.079
  322WAT     H1 1354   1.753   3.725   0.146
  322WAT     H2 1355   1.790   3.582   0.117
  322WAT    EPW 1356   1.786   3.665   0.093
  323WAT      O 1357   2.351   3.808   1.034
  323WAT     H1 1358   2.401   3.728   1.023
  323WAT     H2 1359   2.366   3.857   0.953
  323WAT    EPW 1360   2.360   3.804   1.022
  324WAT      O 1361   0.737   0.749   3.909
  324WAT     H1 1362   0.829   0.772   3.919
  324WAT     H2 1363   0.728   0.664   3.954
  324WAT    EPW 1364   0.748   0.741   3.916
  325WAT      O 1365   3.043   3.810   3.353
  325WAT     H1 1366   3.105   3.748   3.392
  325WAT     H2 1367   3.097   3.886   3.329
  325WAT    EPW 1368   3.059   3.812   3.355
  326WAT      O 1369   0.211   3.121   3.524
  326WAT     H1 1370   0.276   3.169   3.472
  326WAT     H2 1371   0.263   3.054   3.569
  326WAT    EPW 1372   0.227   3.119   3.523
  327WAT      O 1373   0.333   0.608   0.274
  327WAT     H1 1374   0.404   0.656   0.231
  327WAT     H2 1375   0.361   0.601   0.365
  327WAT    EPW 1376   0.346   0.613   0.280
  328WAT      O 1377   2.500   2.703   2.891
  328WAT     H1 1378   2.513   2.623   2.840
  328WAT     H2 1379   2.555   2.768   2.846
  328WAT    EPW 1380   2.509   2.701   2.878
  329WAT      O 1381   0.917   2.347   3.734
  329WAT     H1 1382   0.842   2.293   3.710
  329WAT     H2 1383   0.940   2.319   3.823
  329WAT    EPW 1384   0.910   2.336   3.743
  330WAT      O 1385   2.799   1.981   1.411
  330WAT     H1 1386   2.805   1.902   1.465
  330WAT     H2 1387   2.762   1.951   1.328
  330WAT    EPW 1388   2.795   1.967   1.407
  331WAT      O 1389   0.617   2.589   3.469
  331WAT     H1 1390   0.579   2.671   3.437
  331WAT     H2 1391   0.541   2.539   3.501
  331WAT    EPW 1392   0.602   2.593   3.469
  332WAT      O 1393   2.324   0.087   3.717
  332WAT     H1 1394   2.378   0.072   3.795
  332WAT     H2 1395   2.386   0.117   3.650
  332WAT    EPW 1396   2.340   0.089   3.718
  333WAT      O 1397   0.443   1.742   2.137
  333WAT     H1 1398   0.396   1.812   2.183
  333WAT     H2 1399   0.411   1.747   2.047
  333WAT    EPW 1400   0.433   1.752   2.131
  334WAT      O 1401   0.040   1.737   1.413
  334WAT     H1 1402   0.001   1.683   1.345
  334WAT     H2 1403   0.080   1.674   1.473
  334WAT    EPW 1404   0.040   1.721   1.412
  335WAT      O 1405   0.910   0.427   3.780
  335WAT     H1 1406   0.937   0.390   3.696
  335WAT     H2 1407   0.957   0.376   3.845
  335WAT    EPW 1408   0.920   0.415   3.778
  336WAT      O 1409   2.093   2.966   1.007
  336WAT     H1 1410   2.095   2.872   0.989
  336WAT     H2 1411   2.014   2.998   0.964
  336WAT    EPW 1412   2.083   2.958   0.999
  337WAT      O 1413   3.488   1.059   3.653
  337WAT     H1 1414   3.497   1.057   3.748
  337WAT     H2 1415   3.537   1.136   3.625
  337WAT    EPW 1416   3.496   1.069   3.662
  338WAT      O 1417   1.077   3.638   3.943
  338WAT     H1 1418   1.100   3.681   4.025
  338WAT     H2 1419   0.981   3.638   3.941
  338WAT    EPW 1420   1.067   3.644   3.953
  339WAT      O 1421   2.559   0.283   1.246
  339WAT     H1 1422   2.596   0.371   1.233
  339WAT     H2 1423   2.509   0.290   1.327
  339WAT    EPW 1424   2.558   0.296   1.255
  340WAT      O 1425   2.658   3.806   1.988
  340WAT     H1 1426   2.563   3.811   1.987
  340WAT     H2 1427   2.686   3.883   1.938
  340WAT    EPW 1428   2.649   3.817   1.981
  341WAT      O 1429   1.836   1.922   1.423
  341WAT     H1 1430   1.856   1.885   1.509
  341WAT     H2 1431   1.773   1.992   1.440
  341WAT    EPW 1432   1.830   1.926   1.436
  342WAT      O 1433   1.024   1.520   0.047
  342WAT     H1 1434   1.044   1.591   0.107
  342WAT     H2 1435   1.053   1.441   0.093
  342WAT    EPW 1436   1.030   1.519   0.061
  343WAT      O 1437   1.206   0.202   0.505
  343WAT     H1 1438   1.226   0.236   0.418
  343WAT     H2 1439   1.272   0.243   0.562
  343WAT    EPW 1440   1.217   0.212   0.501
  344WAT      O 1441   2.779   2.086   3.638
  344WAT     H1 1442   2.809   2.001   3.669
  344WAT     H2 1443   2.857   2.141   3.640
  344WAT    EPW 1444   2.793   2.082   3.642
  345WAT      O 1445   2.624   3.547   0.296
  345WAT     H1 1446   2.593   3.461   0.269
  345WAT     H2 1447   2.718   3.545   0.278
  345WAT    EPW 1448   2.632   3.536   0.290
  346WAT      O 1449   0.430   3.082   1.239
  346WAT     H1 1450   0.379   3.161   1.223
  346WAT     H2 1451   0.472   3.064   1.154
  346WAT    EPW 1452   0.428   3.090   1.225
  347WAT      O 1453   1.371   1.564   0.829
  347WAT     H1 1454   1.303   1.549   0.895
  347WAT     H2 1455   1.333   1.533   0.747
  347WAT    EPW 1456   1.357   1.558   0.827
  348WAT      O 1457   1.639   0.643   3.020
  348WAT     H1 1458   1.695   0.683   2.954
  348WAT     H2 1459   1.692   0.571   3.056
  348WAT    EPW 1460   1.654   0.639   3.016
  349WAT      O 1461   3.279   0.665   1.847
  349WAT     H1 1462   3.342   0.598   1.876
  349WAT     H2 1463   3.329   0.746   1.848
  349WAT    EPW 1464   3.294   0.667   1.851
  350WAT      O 1465   0.738   3.833   0.399
  350WAT     H1 1466   0.673   3.868   0.338
  350WAT     H2 1467   0.816   3.886   0.384
  350WAT    EPW 1468   0.740   3.845   0.389
  351WAT      O 1469   0.101   0.435   0.374
  351WAT     H1 1470   0.118   0.344   0.349
  351WAT     H2 1471   0.049   0.471   0.301
  351WAT    EPW 1472   0.096   0.428   0.361
  352WAT      O 1473   0.168   0.909   1.661
  352WAT     H1 1474   0.235   0.844   1.681
  352WAT     H2 1475   0.136   0.884   1.574
  352WAT    EPW 1476   0.172   0.897   1.652
  353WAT      O 1477   3.220   1.302   2.805
  353WAT     H1 1478   3.189   1.220   2.767
  353WAT     H2 1479   3.153   1.327   2.868
  353WAT    EPW 1480   3.207   1.294   2.808
  354WAT      O 1481   3.278   3.881   0.132
  354WAT     H1 1482   3.326   3.806   0.168
  354WAT     H2 1483   3.259   3.855   0.041
  354WAT    EPW 1484   3.282   3.868   0.124
  355WAT      O 1485   2.456   3.891   0.771
  355WAT     H1 1486   2.396   3.856   0.705
  355WAT     H2 1487   2.540   3.897   0.725
  355WAT    EPW 1488   2.459   3.887   0.756
  356WAT      O 1489   0.362   2.765   2.290
  356WAT     H1 1490   0.408   2.742   2.209
  356WAT     H2 1491   0.278   2.799   2.260
  356WAT    EPW 1492   0.357   2.766   2.276
  357WAT      O 1493   0.606   1.628   0.220
  357WAT     H1 1494   0.676   1.684   0.186
  357WAT     H2 1495   0.536   1.637   0.156
  357WAT    EPW 1496   0.606   1.637   0.207
  358WAT      O 1497   1.315   2.003   1.140
  358WAT     H1 1498   1.362   1.922   1.123
  358WAT     H2 1499   1.242   1.978   1.197
  358WAT    EPW 1500   1.312   1.989   1.145
  359WAT      O 1501   3.400   0.261   3.681
  359WAT     H1 1502   3.361   0.209   3.751
  359WAT     H2 1503   3.364   0.225   3.600
  359WAT    EPW 1504   3.390   0.250   3.679
  360WAT      O 1505   3.123   1.669   1.263
  360WAT     H1 1506   3.152   1.676   1.354
  360WAT     H2 1507   3.051   1.732   1.256
  360WAT    EPW 1508   3.117   1.678   1.274
  361WAT      O 1509   0.970   1.227   3.285
  361WAT     H1 1510   0.966   1.228   3.189
  361WAT     H2 1511   0.895   1.280   3.312
  361WAT    EPW 1512   0.959   1.234   3.276
  362WAT      O 1513   0.836   3.474   1.469
  362WAT     H1 1514   0.873   3.468   1.381
  362WAT     H2 1515   0.743   3.459   1.457
  362WAT    EPW 1516   0.829   3.471   1.456
  363WAT      O 1517   0.780   2.849   4.053
  363WAT     H1 1518   0.738   2.763   4.057
  363WAT     H2 1519   0.874   2.830   4.056
  363WAT    EPW 1520   0.787   2.835   4.054
  364WAT      O 1521   1.383   2.908   3.271
  364WAT     H1 1522   1.471   2.920   3.234
  364WAT     H2 1523   1.366   2.814   3.263
  364WAT    EPW 1524   1.393   2.897   3.265
  365WAT      O 1525   1.265   1.539   0.576
  365WAT     H1 1526   1.286   1.632   0.574
  365WAT     H2 1527   1.170   1.535   0.561
  365WAT    EPW 1528   1.255   1.551   0.574
  366WAT      O 1529   0.822   1.581   3.886
  366WAT     H1 1530   0.799   1.524   3.812
  366WAT     H2 1531   0.903   1.543   3.920
  366WAT    EPW 1532   0.829   1.568   3.880
  367WAT      O 1533   2.885   1.161   3.398
  367WAT     H1 1534   2.816   1.207   3.350
  367WAT     H2 1535   2.877   1.070   3.371
  367WAT    EPW 1536   2.875   1.155   3.388
  368WAT      O 1537   2.118   1.036   0.034
  368WAT     H1 1538   2.025   1.057   0.025
  368WAT     H2 1539   2.119   0.960   0.092
  368WAT    EPW 1540   2.106   1.028   0.040
  369WAT      O 1541   1.238   0.597   1.607
  369WAT     H1 1542   1.192   0.538   1.665
  369WAT     H2 1543   1.243   0.680   1.655
  369WAT    EPW 1544   1.233   0.600   1.621
  370WAT      O 1545   0.575   0.508   3.358
  370WAT     H1 1546   0.560   0.563   3.435
  370WAT     H2 1547   0.550   0.563   3.284
  370WAT    EPW 1548   0.570   0.522   3.358
  371WAT      O 1549   3.468   2.358   0.384
  371WAT     H1 1550   3.478   2.322   0.296
  371WAT     H2 1551   3.425   2.443   0.371
  371WAT    EPW 1552   3.464   2.365   0.371
  372WAT      O 1553   2.060   1.536   0.204
  372WAT     H1 1554   2.099   1.592   0.137
  372WAT     H2 1555   2.091   1.573   0.287
  372WAT    EPW 1556   2.069   1.549   0.206
  373WAT      O 1557   3.043   2.074   2.998
  373WAT     H1 1558   3.122   2.124   2.976
  373WAT     H2 1559   2.981   2.096   2.928
  373WAT    EPW 1560   3.045   2.084   2.986
  374WAT      O 1561   1.231   0.896   2.938
  374WAT     H1 1562   1.136   0.892   2.938
  374WAT     H2 1563   1.252   0.989   2.949
  374WAT    EPW 1564   1.221   0.908   2.939
  375WAT      O 1565   1.386   0.631   2.858
  375WAT     H1 1566   1.321   0.578   2.904
  375WAT     H2 1567   1.458   0.642   2.921
  375WAT    EPW 1568   1.387   0.626   2.873
  376WAT      O 1569   1.204   3.800   0.793
  376WAT     H1 1570   1.191   3.880   0.844
  376WAT     H2 1571   1.157   3.732   0.843
  376WAT    EPW 1572   1.196   3.801   0.806
  377WAT      O 1573   0.080   0.216   0.050
  377WAT     H1 1574   0.053   0.181   0.135
  377WAT     H2 1575  -0.002   0.229   0.002
  377WAT    EPW 1576   0.066   0.213   0.055
  378WAT      O 1577   2.912   0.224   3.651
  378WAT     H1 1578   2.849   0.296   3.639
  378WAT     H2 1579   2.965   0.251   3.725
  378WAT    EPW 1580   2.911   0.237   3.659
  379WAT      O 1581   0.741   2.569   0.043
  379WAT     H1 1582   0.771   2.577  -0.047
  379WAT     H2 1583   0.663   2.514   0.038
  379WAT    EPW 1584   0.734   2.563   0.031
  380WAT      O 1585   2.606   2.354   1.321
  380WAT     H1 1586   2.591   2.281   1.381
  380WAT     H2 1587   2.684   2.397   1.355
  380WAT    EPW 1588   2.614   2.350   1.333
  381WAT      O 1589   0.494   0.496   2.966
  381WAT     H1 1590   0.424   0.520   2.906
  381WAT     H2 1591   0.484   0.557   3.040
  381WAT    EPW 1592   0.484   0.507   2.968
  382WAT      O 1593   1.749   2.593   3.344
  382WAT     H1 1594   1.759   2.498   3.333
  382WAT     H2 1595   1.675   2.616   3.289
  382WAT    EPW 1596   1.741   2.584   3.335
  383WAT      O 1597   1.548   2.462   0.534
  383WAT     H1 1598   1.590   2.465   0.620
  383WAT     H2 1599   1.478   2.527   0.539
  383WAT    EPW 1600   1.544   2.471   0.546
  384WAT      O 1601   2.370   1.436   0.535
  384WAT     H1 1602   2.352   1.345   0.511
  384WAT     H2 1603   2.427   1.467   0.465
  384WAT    EPW 1604   2.376   1.428   0.522
  385WAT      O 1605   3.504   3.708   1.046
  385WAT     H1 1606   3.553   3.789   1.031
  385WAT     H2 1607   3.454   3.725   1.126
  385WAT    EPW 1608   3.504   3.721   1.055
  386WAT      O 1609   1.667   2.031   0.054
  386WAT     H1 1610   1.758   2.037   0.025
  386WAT     H2 1611   1.647   2.117   0.089
  386WAT    EPW 1612   1.676   2.043   0.055
  387WAT      O 1613   0.159   0.139   2.557
  387WAT     H1 1614   0.227   0.160   2.492
  387WAT     H2 1615   0.125   0.224   2.583
  387WAT    EPW 1616   0.163   0.153   2.552
  388WAT      O 1617   2.732   0.843   3.574
  388WAT     H1 1618   2.764   0.838   3.484
  388WAT     H2 1619   2.795   0.898   3.620
  388WAT    EPW 1620   2.744   0.850   3.568
  389WAT      O 1621   0.142   1.138   3.677
  389WAT     H1 1622   0.127   1.231   3.663
  389WAT     H2 1623   0.110   1.095   3.598
  389WAT    EPW 1624   0.136   1.144   3.665
  390WAT      O 1625   1.495   2.734   1.511
  390WAT     H1 1626   1.569   2.783   1.475
  390WAT     H2 1627   1.536   2.661   1.558
  390WAT    EPW 1628   1.510   2.731   1.512
  391WAT      O 1629   0.202   2.837   3.332
  391WAT     H1 1630   0.163   2.923   3.320
  391WAT     H2 1631   0.227   2.834   3.425
  391WAT    EPW 1632   0.200   2.848   3.343
  392WAT      O 1633   0.560   2.298   0.519
  392WAT     H1 1634   0.526   2.340   0.598
  392WAT     H2 1635   0.597   2.369   0.467
  392WAT    EPW 1636   0.560   2.313   0.523
  393WAT      O 1637   1.700   1.601   0.647
  393WAT     H1 1638   1.677   1.513   0.621
  393WAT     H2 1639   1.723   1.645   0.565
  393WAT    EPW 1640   1.700   1.596   0.633
  394WAT      O 1641   0.891   2.656   2.955
  394WAT     H1 1642   0.940   2.659   3.038
  394WAT     H2 1643   0.946   2.703   2.893
  394WAT    EPW 1644   0.904   2.662   2.958
  395WAT      O 1645   3.016   3.481   1.304
  395WAT     H1 1646   3.073   3.550   1.271
  395WAT     H2 1647   3.015   3.415   1.234
  395WAT    EPW 1648   3.023   3.481   1.290
  396WAT      O 1649   3.321   1.959   2.123
  396WAT     H1 1650   3.398   2.016   2.118
  396WAT     H2 1651   3.319   1.930   2.214
  396WAT    EPW 1652   3.331   1.963   2.135
  397WAT      O 1653   0.842   0.433   0.615
  397WAT     H1 1654   0.766   0.421   0.558
  397WAT     H2 1655   0.846   0.352   0.666
  397WAT    EPW 1656   0.833   0.421   0.614
  398WAT      O 1657   1.550   1.525   3.897
  398WAT     H1 1658   1.613   1.587   3.933
  398WAT     H2 1659   1.602   1.466   3.844
  398WAT    EPW 1660   1.565   1.526   3.895
  399WAT      O 1661   1.058   0.140   0.076
  399WAT     H1 1662   1.009   0.179   0.149
  399WAT     H2 1663   1.002   0.151   0.000
  399WAT    EPW 1664   1.044   0.147   0.076
  400WAT      O 1665   2.580   0.294   1.738
  400WAT     H1 1666   2.552   0.208   1.706
  400WAT     H2 1667   2.659   0.276   1.788
  400WAT    EPW 1668   2.586   0.280   1.740
  401WAT      O 1669   1.244   2.450   1.133
  401WAT     H1 1670   1.217   2.418   1.219
  401WAT     H2 1671   1.166   2.439   1.078
  401WAT    EPW 1672   1.230   2.445   1.137
  402WAT      O 1673   1.913   4.004   2.903
  402WAT     H1 1674   1.923   3.910   2.886
  402WAT     H2 1675   1.991   4.027   2.954
  402WAT    EPW 1676   1.925   3.994   2.907
  403WAT      O 1677   0.561   2.531   2.485
  403WAT     H1 1678   0.467   2.536   2.501
  403WAT     H2 1679   0.569   2.530   2.390
  403WAT    EPW 1680   0.550   2.532   2.475
  404WAT      O 1681   1.684   3.119   2.697
  404WAT     H1 1682   1.742   3.118   2.774
  404WAT     H2 1683   1.597   3.134   2.733
  404WAT    EPW 1684   1.680   3.121   2.712
  405WAT      O 1685   1.556   0.253   3.409
  405WAT     H1 1686   1.628   0.191   3.413
  405WAT     H2 1687   1.564   0.294   3.324
  405WAT    EPW 1688   1.566   0.250   3.399
  406WAT      O 1689   2.109   2.463   0.755
  406WAT     H1 1690   2.071   2.537   0.708
  406WAT     H2 1691   2.177   2.430   0.696
  406WAT    EPW 1692   2.113   2.469   0.741
  407WAT      O 1693   2.443   1.666   1.826
  407WAT     H1 1694   2.379   1.728   1.788
  407WAT     H2 1695   2.393   1.617   1.891
  407WAT    EPW 1696   2.428   1.668   1.829
  408WAT      O 1697   0.929   3.815   0.657
  408WAT     H1 1698   0.880   3.825   0.739
  408WAT     H2 1699   0.874   3.757   0.603
  408WAT    EPW 1700   0.915   3.809   0.660
  409WAT      O 1701   1.338   3.577   2.321
  409WAT     H1 1702   1.258   3.542   2.281
  409WAT     H2 1703   1.343   3.533   2.406
  409WAT    EPW 1704   1.328   3.567   2.327
  410WAT      O 1705   2.540   2.124   3.797
  410WAT     H1 1706   2.614   2.113   3.737
  410WAT     H2 1707   2.496   2.203   3.766
  410WAT    EPW 1708   2.544   2.133   3.785
  411WAT      O 1709   3.085   3.675   1.890
  411WAT     H1 1710   3.015   3.707   1.948
  411WAT     H2 1711   3.141   3.750   1.877
  411WAT    EPW 1712   3.083   3.689   1.896
  412WAT      O 1713   1.778   2.380   3.038
  412WAT     H1 1714   1.748   2.329   2.963
  412WAT     H2 1715   1.724   2.349   3.111
  412WAT    EPW 1716   1.767   2.369   3.038
  413WAT      O 1717   2.450   3.388   2.527
  413WAT     H1 1718   2.379   3.391   2.463
  413WAT     H2 1719   2.491   3.474   2.520
  413WAT    EPW 1720   2.446   3.400   2.517
  414WAT      O 1721   0.416   0.491   3.715
  414WAT     H1 1722   0.361   0.415   3.702
  414WAT     H2 1723   0.413   0.508   3.809
  414WAT    EPW 1724   0.409   0.483   3.726
  415WAT      O 1725   0.644   1.975   1.551
  415WAT     H1 1726   0.704   1.901   1.562
  415WAT     H2 1727   0.699   2.052   1.565
  415WAT    EPW 1728   0.659   1.975   1.554
  416WAT      O 1729   3.572   2.472   3.222
  416WAT     H1 1730   3.635   2.421   3.273
  416WAT     H2 1731   3.585   2.443   3.131
  416WAT    EPW 1732   3.582   2.462   3.216
  417WAT      O 1733   0.223   0.693   3.220
  417WAT     H1 1734   0.195   0.613   3.264
  417WAT     H2 1735   0.179   0.763   3.268
  417WAT    EPW 1736   0.214   0.692   3.232
  418WAT      O 1737   2.637   4.075   0.307
  418WAT     H1 1738   2.552   4.105   0.273
  418WAT     H2 1739   2.650   3.989   0.267
  418WAT    EPW 1740   2.627   4.068   0.297
  419WAT      O 1741   0.495   1.263   2.309
  419WAT     H1 1742   0.411   1.272   2.353
  419WAT     H2 1743   0.491   1.327   2.238
  419WAT    EPW 1744   0.483   1.273   2.306
  420WAT      O 1745   2.805   3.175   2.032
  420WAT     H1 1746   2.796   3.246   2.096
  420WAT     H2 1747   2.718   3.167   1.993
  420WAT    EPW 1748   2.792   3.183   2.035
  421WAT      O 1749   1.469   1.834   3.504
  421WAT     H1 1750   1.529   1.907   3.485
  421WAT     H2 1751   1.525   1.766   3.541
  421WAT    EPW 1752   1.485   1.835   3.506
  422WAT      O 1753   3.499   0.197   0.113
  422WAT     H1 1754   3.571   0.178   0.174
  422WAT     H2 1755   3.423   0.152   0.151
  422WAT    EPW 1756   3.498   0.188   0.126
  423WAT      O 1757   3.061   1.725   2.556
  423WAT     H1 1758   2.967   1.708   2.568
  423WAT     H2 1759   3.073   1.731   2.462
  423WAT    EPW 1760   3.050   1.724   2.545
  424WAT      O 1761   1.223   0.787   1.280
  424WAT     H1 1762   1.233   0.822   1.369
  424WAT     H2 1763   1.312   0.782   1.246
  424WAT    EPW 1764   1.236   0.791   1.288
  425WAT      O 1765   3.187   0.628   0.879
  425WAT     H1 1766   3.246   0.680   0.825
  425WAT     H2 1767   3.165   0.552   0.825
  425WAT    EPW 1768   3.192   0.624   0.865
  426WAT      O 1769   0.810   1.298   0.273
  426WAT     H1 1770   0.887   1.246   0.295
  426WAT     H2 1771   0.839   1.356   0.203
  426WAT    EPW 1772   0.824   1.299   0.267
  427WAT      O 1773   2.303   1.406   2.681
  427WAT     H1 1774   2.370   1.401   2.749
  427WAT     H2 1775   2.243   1.334   2.702
  427WAT    EPW 1776   2.304   1.396   2.693
  428WAT      O 1777   1.129   0.965   1.790
  428WAT     H1 1778   1.127   0.954   1.695
  428WAT     H2 1779   1.110   0.878   1.825
  428WAT    EPW 1780   1.127   0.952   1.782
  429WAT      O 1781   1.017   0.021   2.294
  429WAT     H1 1782   1.071  -0.015   2.224
  429WAT     H2 1783   0.946  -0.042   2.305
  429WAT    EPW 1784   1.015   0.008   2.287
  430WAT      O 1785   0.165   1.799   3.969
  430WAT     H1 1786   0.229   1.807   3.898
  430WAT     H2 1787   0.083   1.831   3.932
  430WAT    EPW 1788   0.163   1.805   3.955
  431WAT      O 1789   0.099   0.608   2.070
  431WAT     H1 1790   0.123   0.697   2.093
  431WAT     H2 1791   0.098   0.607   1.974
  431WAT    EPW 1792   0.102   0.619   2.060
  432WAT      O 1793   2.979   1.076   1.850
  432WAT     H1 1794   3.056   1.106   1.801
  432WAT     H2 1795   3.015   1.024   1.921
  432WAT    EPW 1796   2.994   1.073   1.853
  433WAT      O 1797   0.477   3.842   3.899
  433WAT     H1 1798   0.567   3.873   3.894
  433WAT     H2 1799   0.482   3.748   3.883
  433WAT    EPW 1800   0.489   3.834   3.896
  434WAT      O 1801   1.620   3.953   2.900
  434WAT     H1 1802   1.675   4.015   2.948
  434WAT     H2 1803   1.661   3.947   2.813
  434WAT    EPW 1804   1.633   3.960   2.895
  435WAT      O 1805   0.628   2.522   2.206
  435WAT     H1 1806   0.603   2.558   2.121
  435WAT     H2 1807   0.716   2.557   2.222
  435WAT    EPW 1808   0.636   2.531   2.197
  436WAT      O 1809   1.376   0.208   2.927
  436WAT     H1 1810   1.293   0.218   2.879
  436WAT     H2 1811   1.404   0.118   2.906
  436WAT    EPW 1812   1.369   0.197   2.918
  437WAT      O 1813   1.080   0.361   2.317
  437WAT     H1 1814   1.001   0.307   2.315
  437WAT     H2 1815   1.048   0.450   2.307
  437WAT    EPW 1816   1.066   0.365   2.316
  438WAT      O 1817   2.803   0.436   0.890
  438WAT     H1 1818   2.745   0.366   0.920
  438WAT     H2 1819   2.749   0.515   0.891
  438WAT    EPW 1820   2.789   0.437   0.894
  439WAT      O 1821   0.522   1.001   1.619
  439WAT     H1 1822   0.507   1.086   1.661
  439WAT     H2 1823   0.538   1.022   1.527
  439WAT    EPW 1824   0.522   1.015   1.613
  440WAT      O 1825   1.127   3.035   3.326
  440WAT     H1 1826   1.216   3.018   3.295
  440WAT     H2 1827   1.071   2.993   3.262
  440WAT    EPW 1828   1.132   3.027   3.314
  441WAT      O 1829   2.342   1.328   3.695
  441WAT     H1 1830   2.436   1.313   3.708
  441WAT     H2 1831   2.339   1.397   3.629
  441WAT    EPW 1832   2.354   1.335   3.688
  442WAT      O 1833   1.915   0.131   0.426
  442WAT     H1 1834   1.998   0.178   0.420
  442WAT     H2 1835   1.915   0.072   0.350
  442WAT    EPW 1836   1.926   0.130   0.415
  443WAT      O 1837   1.963   2.364   0.032
  443WAT     H1 1838   2.049   2.335   0.002
  443WAT     H2 1839   1.972   2.367   0.127
  443WAT    EPW 1840   1.976   2.361   0.041
  444WAT      O 1841   1.990   1.175   3.527
  444WAT     H1 1842   2.028   1.139   3.606
  444WAT     H2 1843   1.900   1.142   3.526
  444WAT    EPW 1844   1.983   1.166   3.537
  445WAT      O 1845   3.656   1.730   1.110
  445WAT     H1 1846   3.678   1.638   1.120
  445WAT     H2 1847   3.694   1.755   1.026
  445WAT    EPW 1848   3.664   1.721   1.100
  446WAT      O 1849   3.128   2.009   2.649
  446WAT     H1 1850   3.101   2.070   2.580
  446WAT     H2 1851   3.077   1.929   2.631
  446WAT    EPW 1852   3.118   2.006   2.637
  447WAT      O 1853   2.718   3.946   2.982
  447WAT     H1 1854   2.761   3.872   3.024
  447WAT     H2 1855   2.666   3.986   3.053
  447WAT    EPW 1856   2.717   3.942   2.997
  448WAT      O 1857   1.046   3.226   1.336
  448WAT     H1 1858   1.092   3.267   1.410
  448WAT     H2 1859   1.028   3.137   1.365
  448WAT    EPW 1860   1.050   3.220   1.350
  449WAT      O 1861   0.229   2.562   3.343
  449WAT     H1 1862   0.293   2.537   3.276
  449WAT     H2 1863   0.209   2.653   3.324
  449WAT    EPW 1864   0.235   2.570   3.331
  450WAT      O 1865   3.201   2.926   0.278
  450WAT     H1 1866   3.145   2.850   0.264
  450WAT     H2 1867   3.195   2.944   0.372
  450WAT    EPW 1868   3.193   2.919   0.288
  451WAT      O 1869   2.946   3.216   2.469
  451WAT     H1 1870   2.964   3.142   2.527
  451WAT     H2 1871   2.929   3.290   2.528
  451WAT    EPW 1872   2.946   3.216   2.484
  452WAT      O 1873   2.685   1.068   2.285
  452WAT     H1 1874   2.666   1.003   2.352
  452WAT     H2 1875   2.601   1.110   2.267
  452WAT    EPW 1876   2.672   1.065   2.291
  453WAT      O 1877   2.863   1.104   0.997
  453WAT     H1 1878   2.815   1.153   1.064
  453WAT     H2 1879   2.865   1.163   0.922
  453WAT    EPW 1880   2.857   1.118   0.996
  454WAT      O 1881   0.994   3.875   3.141
  454WAT     H1 1882   1.028   3.962   3.124
  454WAT     H2 1883   0.934   3.886   3.215
  454WAT    EPW 1884   0.991   3.888   3.148
  455WAT      O 1885   2.756   2.795   0.654
  455WAT     H1 1886   2.706   2.871   0.684
  455WAT     H2 1887   2.692   2.741   0.609
  455WAT    EPW 1888   2.741   2.798   0.652
  456WAT      O 1889   0.311   0.168   0.495
  456WAT     H1 1890   0.221   0.173   0.465
  456WAT     H2 1891   0.341   0.259   0.497
  456WAT    EPW 1892   0.303   0.181   0.491
  457WAT      O 1893   2.942   3.921   0.567
  457WAT     H1 1894   2.950   3.908   0.662
  457WAT     H2 1895   3.000   3.855   0.529
  457WAT    EPW 1896   2.951   3.911   0.575
  458WAT      O 1897   1.132   0.364   3.929
  458WAT     H1 1898   1.164   0.286   3.884
  458WAT     H2 1899   1.207   0.424   3.929
  458WAT    EPW 1900   1.146   0.362   3.923
  459WAT      O 1901   0.644   4.095   1.951
  459WAT     H1 1902   0.648   4.021   1.892
  459WAT     H2 1903   0.553   4.100   1.979
  459WAT    EPW 1904   0.633   4.086   1.947
  460WAT      O 1905   1.378   1.238   3.356
  460WAT     H1 1906   1.440   1.165   3.349
  460WAT     H2 1907   1.375   1.258   3.449
  460WAT    EPW 1908   1.386   1.231   3.367
  461WAT      O 1909   2.387   3.792   1.879
  461WAT     H1 1910   2.350   3.876   1.849
  461WAT     H2 1911   2.447   3.767   1.810
  461WAT    EPW 1912   2.390   3.800   1.866
  462WAT      O 1913   3.299   2.595   0.255
  462WAT     H1 1914   3.212   2.558   0.238
  462WAT     H2 1915   3.293   2.629   0.344
  462WAT    EPW 1916   3.287   2.595   0.264
  463WAT      O 1917   2.751   1.384   3.238
  463WAT     H1 1918   2.669   1.375   3.286
  463WAT     H2 1919   2.725   1.423   3.154
  463WAT    EPW 1920   2.737   1.388   3.233
  464WAT      O 1921   1.235   1.683   1.831
  464WAT     H1 1922   1.324   1.717   1.832
  464WAT     H2 1923   1.189   1.732   1.899
  464WAT    EPW 1924   1.240   1.694   1.840
  465WAT      O 1925   0.838   2.286   1.816
  465WAT     H1 1926   0.927   2.264   1.844
  465WAT     H2 1927   0.833   2.255   1.726
  465WAT    EPW 1928   0.850   2.279   1.808
  466WAT      O 1929   1.409   3.163   2.770
  466WAT     H1 1930   1.342   3.095   2.757
  466WAT     H2 1931   1.368   3.226   2.829
  466WAT    EPW 1932   1.395   3.162   2.776
  467WAT      O 1933   1.951   2.590   0.401
  467WAT     H1 1934   1.882   2.656   0.415
  467WAT     H2 1935   1.904   2.507   0.398
  467WAT    EPW 1936   1.935   2.588   0.403
  468WAT      O 1937   0.021   1.672   0.659
  468WAT     H1 1938   0.108   1.660   0.698
  468WAT     H2 1939   0.016   1.605   0.591
  468WAT    EPW 1940   0.032   1.662   0.655
  469WAT      O 1941   2.792   1.419   2.898
  469WAT     H1 1942   2.738   1.466   2.962
  469WAT     H2 1943   2.878   1.411   2.940
  469WAT    EPW 1944   2.796   1.424   2.912
  470WAT      O 1945   3.452   2.702   4.068
  470WAT     H1 1946   3.406   2.645   4.130
  470WAT     H2 1947   3.420   2.674   3.982
  470WAT    EPW 1948   3.442   2.691   4.065
  471WAT      O 1949   1.784   3.099   3.836
  471WAT     H1 1950   1.776   3.140   3.749
  471WAT     H2 1951   1.694   3.096   3.868
  471WAT    EPW 1952   1.771   3.104   3.829
  472WAT      O 1953   2.517   0.246   3.293
  472WAT     H1 1954   2.519   0.220   3.385
  472WAT     H2 1955   2.439   0.203   3.257
  472WAT    EPW 1956   2.507   0.237   3.301
  473WAT      O 1957   1.691   2.633   3.644
  473WAT     H1 1958   1.729   2.626   3.556
  473WAT     H2 1959   1.664   2.543   3.665
  473WAT    EPW 1960   1.692   2.620   3.635
  474WAT      O 1961   2.831   2.150   2.801
  474WAT     H1 1962   2.832   2.054   2.798
  474WAT     H2 1963   2.738   2.172   2.809
  474WAT    EPW 1964   2.818   2.140   2.801
  475WAT      O 1965   3.312   1.194   2.389
  475WAT     H1 1966   3.387   1.213   2.445
  475WAT     H2 1967   3.291   1.279   2.348
  475WAT    EPW 1968   3.319   1.208   2.391
  476WAT      O 1969   0.964   2.213   0.173
  476WAT     H1 1970   0.875   2.177   0.179
  476WAT     H2 1971   0.968   2.279   0.242
  476WAT    EPW 1972   0.953   2.217   0.183
  477WAT      O 1973   2.881   0.487   0.279
  477WAT     H1 1974   2.851   0.419   0.339
  477WAT     H2 1975   2.855   0.569   0.320
  477WAT    EPW 1976   2.873   0.489   0.292
  478WAT      O 1977   1.311   0.160   3.548
  478WAT     H1 1978   1.270   0.124   3.469
  478WAT     H2 1979   1.377   0.221   3.516
  478WAT    EPW 1980   1.314   0.163   3.534
  479WAT      O 1981   2.449   0.885   0.553
  479WAT     H1 1982   2.474   0.978   0.558
  479WAT     H2 1983   2.377   0.877   0.615
  479WAT    EPW 1984   2.443   0.897   0.562
  480WAT      O 1985   2.663   3.928   0.566
  480WAT     H1 1986   2.757   3.916   0.578
  480WAT     H2 1987   2.655   3.973   0.482
  480WAT    EPW 1988   2.674   3.933   0.557
  481WAT      O 1989   2.537   2.946   2.216
  481WAT     H1 1990   2.455   2.923   2.260
  481WAT     H2 1991   2.602   2.887   2.255
  481WAT    EPW 1992   2.535   2.935   2.227
  482WAT      O 1993   1.639   2.025   3.369
  482WAT     H1 1994   1.728   1.994   3.382
  482WAT     H2 1995   1.621   2.011   3.276
  482WAT    EPW 1996   1.648   2.019   3.359
  483WAT      O 1997   3.109   3.698   2.556
  483WAT     H1 1998   3.065   3.629   2.506
  483WAT     H2 1999   3.194   3.709   2.513
  483WAT    EPW 2000   3.114   3.690   2.544
  484WAT      O 2001   1.314   1.867   0.157
  484WAT     H1 2002   1.224   1.885   0.185
  484WAT     H2 2003   1.314   1.888   0.064
  484WAT    EPW 2004   1.302   1.872   0.149
  485WAT      O 2005   3.522   3.884   3.774
  485WAT     H1 2006   3.616   3.875   3.758
  485WAT     H2 2007   3.516   3.921   3.862
  485WAT    EPW 2008   3.534   3.887   3.783
  486WAT      O 2009   2.733   1.649   1.078
  486WAT     H1 2010   2.754   1.559   1.106
  486WAT     H2 2011   2.683   1.685   1.152
  486WAT    EPW 2012   2.729   1.642   1.092
  487WAT      O 2013   1.507   2.998   2.388
  487WAT     H1 2014   1.580   2.948   2.352
  487WAT     H2 2015   1.538   3.089   2.387
  487WAT    EPW 2016   1.521   3.004   2.383
  488WAT      O 2017   2.339   1.395   4.070
  488WAT     H1 2018   2.370   1.469   4.018
  488WAT     H2 2019   2.254   1.373   4.034
  488WAT    EPW 2020   2.332   1.401   4.059
  489WAT      O 2021   0.252   0.618   2.465
  489WAT     H1 2022   0.341   0.583   2.468
  489WAT     H2 2023   0.245   0.671   2.545
  489WAT    EPW 2024   0.263   0.620   2.476
  490WAT      O 2025   1.792   1.073   0.774
  490WAT     H1 2026   1.759   1.163   0.783
  490WAT     H2 2027   1.824   1.051   0.862
  490WAT    EPW 2028   1.792   1.082   0.787
  491WAT      O 2029   3.361   4.112   0.263
  491WAT     H1 2030   3.321   4.044   0.209
  491WAT     H2 2031   3.292   4.177   0.274
  491WAT    EPW 2032   3.347   4.112   0.257
  492WAT      O 2033   0.030   2.441   2.449
  492WAT     H1 2034  -0.024   2.515   2.422
  492WAT     H2 2035  -0.014   2.406   2.526
  492WAT    EPW 2036   0.017   2.446   2.455
  493WAT      O 2037   0.722   0.620   1.354
  493WAT     H1 2038   0.673   0.698   1.379
  493WAT     H2 2039   0.781   0.604   1.427
  493WAT    EPW 2040   0.723   0.628   1.367
  494WAT      O 2041   3.308   0.967   2.960
  494WAT     H1 2042   3.312   0.898   3.027
  494WAT     H2 2043   3.214   0.983   2.949
  494WAT    EPW 2044   3.296   0.960   2.967
  495WAT      O 2045   3.363   0.343   0.428
  495WAT     H1 2046   3.301   0.284   0.384
  495WAT     H2 2047   3.404   0.392   0.357
  495WAT    EPW 2048   3.360   0.342   0.413
  496WAT      O 2049   2.911   1.241   0.748
  496WAT     H1 2050   2.886   1.334   0.755
  496WAT     H2 2051   2.969   1.238   0.672
  496WAT    EPW 2052   2.915   1.253   0.739
  497WAT      O 2053   0.481   1.586   1.027
  497WAT     H1 2054   0.434   1.564   1.107
  497WAT     H2 2055   0.560   1.631   1.058
  497WAT    EPW 2056   0.485   1.589   1.042
  498WAT      O 2057   0.362   2.658   3.992
  498WAT     H1 2058   0.275   2.678   3.957
  498WAT     H2 2059   0.372   2.564   3.981
  498WAT    EPW 2060   0.352   2.648   3.986
  499WAT      O 2061   3.541   3.657   3.312
  499WAT     H1 2062   3.528   3.605   3.232
  499WAT     H2 2063   3.628   3.695   3.302
  499WAT    EPW 2064   3.551   3.655   3.300
  500WAT      O 2065   3.429   1.840   3.682
  500WAT     H1 2066   3.479   1.900   3.627
  500WAT     H2 2067   3.434   1.756   3.637
  500WAT    EPW 2068   3.436   1.837   3.669
  501WAT      O 2069   0.827   2.598   3.845
  501WAT     H1 2070   0.872   2.521   3.812
  501WAT     H2 2071   0.749   2.606   3.790
  501WAT    EPW 2072   0.823   2.589   3.834
  502WAT      O 2073   2.862   2.898   0.092
  502WAT     H1 2074   2.908   2.978   0.067
  502WAT     H2 2075   2.769   2.921   0.087
  502WAT    EPW 2076   2.856   2.911   0.088
  503WAT      O 2077   0.378   0.288   3.422
  503WAT     H1 2078   0.404   0.197   3.435
  503WAT     H2 2079   0.460   0.334   3.403
  503WAT    EPW 2080   0.392   0.282   3.421
  504WAT      O 2081   3.543   2.621   2.380
  504WAT     H1 2082   3.463   2.610   2.432
  504WAT     H2 2083   3.524   2.693   2.321
  504WAT    EPW 2084   3.530   2.629   2.379
  505WAT      O 2085   0.572   2.945   1.014
  505WAT     H1 2086   0.641   2.985   0.962
  505WAT     H2 2087   0.607   2.860   1.039
  505WAT    EPW 2088   0.586   2.939   1.010
  506WAT      O 2089   1.894   0.614   0.550
  506WAT     H1 2090   1.869   0.530   0.588
  506WAT     H2 2091   1.834   0.677   0.589
  506WAT    EPW 2092   1.883   0.611   0.560
  507WAT      O 2093   1.394   3.844   3.073
  507WAT     H1 2094   1.321   3.886   3.028
  507WAT     H2 2095   1.470   3.864   3.018
  507WAT    EPW 2096   1.394   3.852   3.060
  508WAT      O 2097   3.529   1.867   0.189
  508WAT     H1 2098   3.459   1.805   0.211
  508WAT     H2 2099   3.606   1.812   0.175
  508WAT    EPW 2100   3.530   1.852   0.190
  509WAT      O 2101   2.069   0.223   2.367
  509WAT     H1 2102   2.140   0.209   2.429
  509WAT     H2 2103   1.995   0.253   2.421
  509WAT    EPW 2104   2.068   0.225   2.382
  510WAT      O 2105   1.373   1.234   3.873
  510WAT     H1 2106   1.346   1.323   3.894
  510WAT     H2 2107   1.302   1.200   3.819
  510WAT    EPW 2108   1.360   1.241   3.868
  511WAT      O 2109   1.736   3.475   1.094
  511WAT     H1 2110   1.657   3.421   1.099
  511WAT     H2 2111   1.724   3.541   1.162
  511WAT    EPW 2112   1.724   3.476   1.104
  512WAT      O 2113   2.931   1.407   1.197
  512WAT     H1 2114   2.928   1.445   1.285
  512WAT     H2 2115   2.851   1.354   1.192
  512WAT    EPW 2116   2.920   1.405   1.208
  513WAT      O 2117   1.457   2.648   1.168
  513WAT     H1 2118   1.447   2.686   1.255
  513WAT     H2 2119   1.379   2.676   1.120
  513WAT    EPW 2120   1.446   2.657   1.173
  514WAT      O 2121   3.267   4.106   2.711
  514WAT     H1 2122   3.340   4.155   2.673
  514WAT     H2 2123   3.287   4.101   2.804
  514WAT    EPW 2124   3.279   4.112   2.718
  515WAT      O 2125   2.116   2.708   0.944
  515WAT     H1 2126   2.042   2.648   0.951
  515WAT     H2 2127   2.118   2.733   0.852
  515WAT    EPW 2128   2.107   2.703   0.933
  516WAT      O 2129   2.522   3.380   1.884
  516WAT     H1 2130   2.529   3.294   1.925
  516WAT     H2 2131   2.532   3.362   1.790
  516WAT    EPW 2132   2.525   3.366   1.877
  517WAT      O 2133   0.138   2.743   1.417
  517WAT     H1 2134   0.049   2.713   1.434
  517WAT     H2 2135   0.130   2.798   1.339
  517WAT    EPW 2136   0.125   2.746   1.409
  518WAT      O 2137   0.728   0.973   1.033
  518WAT     H1 2138   0.800   1.031   1.059
  518WAT     H2 2139   0.756   0.886   1.060
  518WAT    EPW 2140   0.741   0.969   1.040
  519WAT      O 2141   2.145   3.454   0.484
  519WAT     H1 2142   2.165   3.371   0.528
  519WAT     H2 2143   2.181   3.443   0.396
  519WAT    EPW 2144   2.152   3.441   0.478
  520WAT      O 2145   1.501   0.675   1.254
  520WAT     H1 2146   1.578   0.619   1.266
  520WAT     H2 2147   1.453   0.668   1.336
  520WAT    EPW 2148   1.505   0.667   1.266
  521WAT      O 2149   2.276   1.992   1.164
  521WAT     H1 2150   2.269   2.085   1.184
  521WAT     H2 2151   2.289   1.988   1.069
  521WAT    EPW 2152   2.277   2.004   1.154
  522WAT      O 2153   3.722   3.097   2.372
  522WAT     H1 2154   3.657   3.027   2.365
  522WAT     H2 2155   3.771   3.076   2.452
  522WAT    EPW 2156   3.720   3.085   2.382
  523WAT      O 2157   0.385   0.899   1.223
  523WAT     H1 2158   0.352   0.937   1.304
  523WAT     H2 2159   0.408   0.974   1.169
  523WAT    EPW 2160   0.384   0.914   1.226
  524WAT      O 2161   2.258   2.861   2.258
  524WAT     H1 2162   2.202   2.897   2.190
  524WAT     H2 2163   2.210   2.783   2.289
  524WAT    EPW 2164   2.244   2.855   2.253
  525WAT      O 2165   2.192   0.328   0.150
  525WAT     H1 2166   2.147   0.315   0.233
  525WAT     H2 2167   2.152   0.407   0.114
  525WAT    EPW 2168   2.181   0.337   0.156
  526WAT      O 2169   0.845   1.618   0.940
  526WAT     H1 2170   0.752   1.598   0.927
  526WAT     H2 2171   0.882   1.617   0.852
  526WAT    EPW 2172   0.838   1.615   0.927
  527WAT      O 2173   1.580   0.328   3.892
  527WAT     H1 2174   1.611   0.300   3.978
  527WAT     H2 2175   1.504   0.384   3.910
  527WAT    EPW 2176   1.574   0.332   3.905
  528WAT      O 2177   0.052   3.391   2.195
  528WAT     H1 2178   0.047   3.381   2.100
  528WAT     H2 2179  -0.039   3.390   2.225
  528WAT    EPW 2180   0.039   3.390   2.187
  529WAT      O 2181   2.192   1.061   1.340
  529WAT     H1 2182   2.233   1.147   1.333
  529WAT     H2 2183   2.120   1.074   1.402
  529WAT    EPW 2184   2.188   1.074   1.347
  530WAT      O 2185   1.739   0.157   2.953
  530WAT     H1 2186   1.787   0.087   2.999
  530WAT     H2 2187   1.720   0.221   3.021
  530WAT    EPW 2188   1.743   0.156   2.968
  531WAT      O 2189   0.638   3.833   1.284
  531WAT     H1 2190   0.631   3.928   1.289
  531WAT     H2 2191   0.731   3.816   1.268
  531WAT    EPW 2192   0.649   3.843   1.283
  532WAT      O 2193   2.771   2.960   1.053
  532WAT     H1 2194   2.832   2.987   0.984
  532WAT     H2 2195   2.744   3.042   1.094
  532WAT    EPW 2196   2.776   2.974   1.050
  533WAT      O 2197   0.218   0.082   3.896
  533WAT     H1 2198   0.181   0.125   3.973
  533WAT     H2 2199   0.313   0.082   3.913
  533WAT    EPW 2200   0.226   0.087   3.909
  534WAT      O 2201   2.495   0.571   2.757
  534WAT     H1 2202   2.460   0.589   2.670
  534WAT     H2 2203   2.541   0.488   2.748
  534WAT    EPW 2204   2.496   0.563   2.744
  535WAT      O 2205   2.843   0.041   0.730
  535WAT     H1 2206   2.882   0.094   0.799
  535WAT     H2 2207   2.824  -0.043   0.773
  535WAT    EPW 2208   2.845   0.037   0.745
  536WAT      O 2209   0.507   0.153   3.923
  536WAT     H1 2210   0.525   0.244   3.898
  536WAT     H2 2211   0.573   0.133   3.989
  536WAT    EPW 2212   0.518   0.163   3.929
  537WAT      O 2213   1.724   3.240   1.779
  537WAT     H1 2214   1.727   3.217   1.872
  537WAT     H2 2215   1.795   3.304   1.768
  537WAT    EPW 2216   1.734   3.245   1.790
  538WAT      O 2217   1.002   2.254   1.181
  538WAT     H1 2218   0.949   2.334   1.184
  538WAT     H2 2219   0.972   2.209   1.102
  538WAT    EPW 2220   0.991   2.259   1.171
  539WAT      O 2221   2.271   2.439   1.007
  539WAT     H1 2222   2.212   2.514   1.018
  539WAT     H2 2223   2.232   2.389   0.936
  539WAT    EPW 2224   2.258   2.442   0.999
  540WAT      O 2225   1.659   0.855   0.369
  540WAT     H1 2226   1.664   0.935   0.318
  540WAT     H2 2227   1.695   0.787   0.311
  540WAT    EPW 2228   1.665   0.856   0.355
  541WAT      O 2229   1.713   3.685   1.291
  541WAT     H1 2230   1.778   3.656   1.355
  541WAT     H2 2231   1.764   3.726   1.222
  541WAT    EPW 2232   1.728   3.686   1.290
  542WAT      O 2233   2.832   3.475   3.615
  542WAT     H1 2234   2.851   3.477   3.709
  542WAT     H2 2235   2.918   3.484   3.574
  542WAT    EPW 2236   2.846   3.476   3.622
  543WAT      O 2237   1.430   1.907   1.756
  543WAT     H1 2238   1.486   1.834   1.730
  543WAT     H2 2239   1.395   1.941   1.674
  543WAT    EPW 2240   1.433   1.902   1.742
  544WAT      O 2241   0.375   1.125   1.995
  544WAT     H1 2242   0.285   1.106   1.969
  544WAT     H2 2243   0.369   1.205   2.046
  544WAT    EPW 2244   0.363   1.133   1.998
  545WAT      O 2245   0.900   2.495   3.460
  545WAT     H1 2246   0.880   2.427   3.525
  545WAT     H2 2247   0.814   2.528   3.433
  545WAT    EPW 2248   0.886   2.490   3.465
  546WAT      O 2249   1.940   2.921   2.188
  546WAT     H1 2250   1.906   2.992   2.133
  546WAT     H2 2251   1.863   2.888   2.235
  546WAT    EPW 2252   1.925   2.926   2.187
  547WAT      O 2253   0.186   0.639   3.583
  547WAT     H1 2254   0.217   0.728   3.568
  547WAT     H2 2255   0.259   0.596   3.629
  547WAT    EPW 2256   0.200   0.645   3.587
  548WAT      O 2257   3.208   1.855   3.118
  548WAT     H1 2258   3.261   1.796   3.065
  548WAT     H2 2259   3.193   1.931   3.062
  548WAT    EPW 2260   3.213   1.857   3.104
  549WAT      O 2261   0.853   0.687   0.203
  549WAT     H1 2262   0.801   0.677   0.123
  549WAT     H2 2263   0.931   0.635   0.188
  549WAT    EPW 2264   0.856   0.679   0.191
  550WAT      O 2265   1.187   1.306   2.761
  550WAT     H1 2266   1.242   1.369   2.807
  550WAT     H2 2267   1.168   1.347   2.676
  550WAT    EPW 2268   1.191   1.320   2.756
  551WAT      O 2269   0.895   3.434   0.728
  551WAT     H1 2270   0.932   3.378   0.659
  551WAT     H2 2271   0.844   3.500   0.680
  551WAT    EPW 2272   0.893   3.435   0.712
  552WAT      O 2273   2.871   1.695   0.301
  552WAT     H1 2274   2.931   1.753   0.254
  552WAT     H2 2275   2.877   1.611   0.254
  552WAT    EPW 2276   2.880   1.691   0.288
  553WAT      O 2277   3.490   3.378   0.661
  553WAT     H1 2278   3.500   3.454   0.604
  553WAT     H2 2279   3.435   3.409   0.733
  553WAT    EPW 2280   3.484   3.392   0.663
  554WAT      O 2281   3.431   0.732   2.456
  554WAT     H1 2282   3.389   0.750   2.540
  554WAT     H2 2283   3.381   0.781   2.392
  554WAT    EPW 2284   3.419   0.741   2.459
  555WAT      O 2285   2.820   1.016   0.045
  555WAT     H1 2286   2.883   0.954   0.008
  555WAT     H2 2287   2.853   1.102   0.022
  555WAT    EPW 2288   2.832   1.019   0.037
  556WAT      O 2289   0.152   1.942   3.349
  556WAT     H1 2290   0.132   2.021   3.399
  556WAT     H2 2291   0.171   1.876   3.416
  556WAT    EPW 2292   0.152   1.944   3.365
  557WAT      O 2293   0.977   0.737   0.762
  557WAT     H1 2294   1.012   0.825   0.777
  557WAT     H2 2295   1.036   0.698   0.699
  557WAT    EPW 2296   0.989   0.743   0.756
  558WAT      O 2297   1.447   3.454   2.567
  558WAT     H1 2298   1.404   3.397   2.631
  558WAT     H2 2299   1.496   3.394   2.511
  558WAT    EPW 2300   1.448   3.439   2.568
  559WAT      O 2301   3.379   3.101   3.800
  559WAT     H1 2302   3.367   3.077   3.708
  559WAT     H2 2303   3.445   3.171   3.798
  559WAT    EPW 2304   3.386   3.107   3.788
  560WAT      O 2305   3.466   1.361   0.279
  560WAT     H1 2306   3.529   1.319   0.221
  560WAT     H2 2307   3.433   1.289   0.334
  560WAT    EPW 2308   3.470   1.346   0.278
  561WAT      O 2309   0.761   1.253   0.916
  561WAT     H1 2310   0.768   1.270   1.010
  561WAT     H2 2311   0.852   1.249   0.885
  561WAT    EPW 2312   0.774   1.254   0.924
  562WAT      O 2313   2.537   1.051   0.269
  562WAT     H1 2314   2.517   0.985   0.202
  562WAT     H2 2315   2.548   1.132   0.221
  562WAT    EPW 2316   2.536   1.053   0.254
  563WAT      O 2317   3.631   1.677   2.523
  563WAT     H1 2318   3.719   1.639   2.516
  563WAT     H2 2319   3.642   1.754   2.578
  563WAT    EPW 2320   3.644   1.682   2.529
  564WAT      O 2321   2.180   1.636   0.432
  564WAT     H1 2322   2.229   1.561   0.467
  564WAT     H2 2323   2.141   1.677   0.509
  564WAT    EPW 2324   2.181   1.632   0.447
  565WAT      O 2325   2.958   0.937   3.758
  565WAT     H1 2326   2.908   0.908   3.834
  565WAT     H2 2327   3.049   0.934   3.785
  565WAT    EPW 2328   2.963   0.933   3.771
  566WAT      O 2329   0.172   1.370   0.532
  566WAT     H1 2330   0.253   1.338   0.571
  566WAT     H2 2331   0.200   1.431   0.464
  566WAT    EPW 2332   0.186   1.374   0.528
  567WAT      O 2333   2.872   3.429   3.887
  567WAT     H1 2334   2.930   3.353   3.893
  567WAT     H2 2335   2.792   3.402   3.932
  567WAT    EPW 2336   2.869   3.415   3.894
  568WAT      O 2337   0.222   3.840   0.707
  568WAT     H1 2338   0.308   3.882   0.709
  568WAT     H2 2339   0.165   3.901   0.752
  568WAT    EPW 2340   0.226   3.853   0.713
  569WAT      O 2341   3.479   1.518   2.069
  569WAT     H1 2342   3.548   1.499   2.132
  569WAT     H2 2343   3.496   1.459   1.996
  569WAT    EPW 2344   3.490   1.508   2.068
  570WAT      O 2345   0.999   2.710   3.208
  570WAT     H1 2346   1.065   2.642   3.193
  570WAT     H2 2347   0.980   2.704   3.302
  570WAT    EPW 2348   1.005   2.700   3.218
  571WAT      O 2349   3.254   2.777   0.641
  571WAT     H1 2350   3.241   2.688   0.609
  571WAT     H2 2351   3.189   2.829   0.594
  571WAT    EPW 2352   3.244   2.772   0.631
  572WAT      O 2353   0.919   2.450   0.335
  572WAT     H1 2354   0.962   2.429   0.418
  572WAT     H2 2355   0.959   2.532   0.308
  572WAT    EPW 2356   0.930   2.458   0.343
  573WAT      O 2357   2.217   2.737   1.405
  573WAT     H1 2358   2.202   2.713   1.497
  573WAT     H2 2359   2.210   2.832   1.404
  573WAT    EPW 2360   2.214   2.746   1.417
  574WAT      O 2361   1.476   1.797   0.983
  574WAT     H1 2362   1.468   1.727   0.918
  574WAT     H2 2363   1.570   1.802   1.000
  574WAT    EPW 2364   1.488   1.788   0.976
  575WAT      O 2365   0.661   2.786   2.606
  575WAT     H1 2366   0.634   2.785   2.698
  575WAT     H2 2367   0.659   2.694   2.579
  575WAT    EPW 2368   0.658   2.774   2.615
  576WAT      O 2369   0.650   1.902   2.303
  576WAT     H1 2370   0.618   1.990   2.288
  576WAT     H2 2371   0.613   1.850   2.232
  576WAT    EPW 2372   0.641   1.907   2.292
  577WAT      O 2373   1.103   2.667   3.533
  577WAT     H1 2374   1.173   2.602   3.545
  577WAT     H2 2375   1.026   2.614   3.514
  577WAT    EPW 2376   1.102   2.651   3.532
  578WAT      O 2377   3.755   0.378   2.638
  578WAT     H1 2378   3.686   0.338   2.585
  578WAT     H2 2379   3.714   0.393   2.724
  578WAT    EPW 2380   3.741   0.374   2.643
  579WAT      O 2381   3.089   3.015   3.167
  579WAT     H1 2382   3.182   2.996   3.156
  579WAT     H2 2383   3.053   3.010   3.079
  579WAT    EPW 2384   3.096   3.012   3.154
  580WAT      O 2385   0.649   2.526   0.355
  580WAT     H1 2386   0.744   2.529   0.346
  580WAT     H2 2387   0.618   2.493   0.270
  580WAT    EPW 2388   0.657   2.522   0.342
  581WAT      O 2389   1.861   3.150   1.535
  581WAT     H1 2390   1.817   3.131   1.618
  581WAT     H2 2391   1.942   3.099   1.539
  581WAT    EPW 2392   1.866   3.141   1.547
  582WAT      O 2393   0.125   1.443   3.126
  582WAT     H1 2394   0.166   1.446   3.039
  582WAT     H2 2395   0.153   1.525   3.168
  582WAT    EPW 2396   0.134   1.454   3.120
  583WAT      O 2397   2.515   2.878   3.688
  583WAT     H1 2398   2.458   2.857   3.761
  583WAT     H2 2399   2.485   2.964   3.658
  583WAT    EPW 2400   2.504   2.887   3.693
  584WAT      O 2401   0.057   3.761   0.411
  584WAT     H1 2402   0.061   3.683   0.356
  584WAT     H2 2403  -0.009   3.816   0.368
  584WAT    EPW 2404   0.049   3.758   0.398
  585WAT      O 2405   2.009   2.223   3.378
  585WAT     H1 2406   2.000   2.199   3.286
  585WAT     H2 2407   1.931   2.275   3.398
  585WAT    EPW 2408   1.998   2.227   3.369
  586WAT      O 2409   1.571   4.062   2.444
  586WAT     H1 2410   1.635   4.014   2.498
  586WAT     H2 2411   1.512   4.102   2.508
  586WAT    EPW 2412   1.572   4.061   2.460
  587WAT      O 2413   1.412   3.540   0.901
  587WAT     H1 2414   1.459   3.583   0.830
  587WAT     H2 2415   1.441   3.584   0.980
  587WAT    EPW 2416   1.422   3.551   0.902
  588WAT      O 2417   0.673   2.941   3.819
  588WAT     H1 2418   0.721   2.934   3.901
  588WAT     H2 2419   0.581   2.932   3.844
  588WAT    EPW 2420   0.667   2.939   3.833
  589WAT      O 2421   2.926   3.853   3.599
  589WAT     H1 2422   2.952   3.803   3.677
  589WAT     H2 2423   2.988   3.825   3.531
  589WAT    EPW 2424   2.938   3.843   3.600
  590WAT      O 2425   1.265   0.543   0.316
  590WAT     H1 2426   1.208   0.504   0.382
  590WAT     H2 2427   1.290   0.628   0.352
  590WAT    EPW 2428   1.261   0.549   0.329
  591WAT      O 2429   1.362   1.593   0.217
  591WAT     H1 2430   1.340   1.679   0.183
  591WAT     H2 2431   1.285   1.566   0.267
  591WAT    EPW 2432   1.349   1.601   0.219
  592WAT      O 2433   0.109   2.057   1.280
  592WAT     H1 2434   0.172   2.041   1.349
  592WAT     H2 2435   0.037   1.997   1.298
  592WAT    EPW 2436   0.108   2.047   1.291
  593WAT      O 2437   2.153   0.156   3.122
  593WAT     H1 2438   2.181   0.237   3.080
  593WAT     H2 2439   2.234   0.107   3.135
  593WAT    EPW 2440   2.168   0.160   3.118
  594WAT      O 2441   2.702   3.645   2.792
  594WAT     H1 2442   2.717   3.571   2.732
  594WAT     H2 2443   2.756   3.715   2.757
  594WAT    EPW 2444   2.711   3.644   2.779
  595WAT      O 2445   2.788   0.606   1.922
  595WAT     H1 2446   2.801   0.642   2.010
  595WAT     H2 2447   2.695   0.584   1.918
  595WAT    EPW 2448   2.778   0.608   1.933
  596WAT      O 2449   2.306   3.511   1.159
  596WAT     H1 2450   2.284   3.499   1.251
  596WAT     H2 2451   2.249   3.581   1.129
  596WAT    EPW 2452   2.296   3.518   1.167
  597WAT      O 2453   2.193   2.389   1.767
  597WAT     H1 2454   2.260   2.399   1.701
  597WAT     H2 2455   2.228   2.434   1.844
  597WAT    EPW 2456   2.206   2.396   1.769
  598WAT      O 2457   1.089   2.702   1.178
  598WAT     H1 2458   1.138   2.640   1.125
  598WAT     H2 2459   1.143   2.781   1.180
  598WAT    EPW 2460   1.102   2.705   1.172
  599WAT      O 2461   0.516   1.577   2.898
  599WAT     H1 2462   0.578   1.533   2.839
  599WAT     H2 2463   0.482   1.650   2.846
  599WAT    EPW 2464   0.520   1.580   2.883
  600WAT      O 2465   1.528   0.840   1.522
  600WAT     H1 2466   1.506   0.928   1.492
  600WAT     H2 2467   1.608   0.818   1.475
  600WAT    EPW 2468   1.536   0.849   1.512
  601WAT      O 2469   3.394   2.989   3.219
  601WAT     H1 2470   3.425   3.023   3.303
  601WAT     H2 2471   3.421   2.897   3.219
  601WAT    EPW 2472   3.402   2.981   3.230
  602WAT      O 2473   0.023   2.983   1.260
  602WAT     H1 2474   0.088   3.008   1.195
  602WAT     H2 2475  -0.055   2.961   1.208
  602WAT    EPW 2476   0.021   2.983   1.244
  603WAT      O 2477   0.367   3.292   1.572
  603WAT     H1 2478   0.301   3.224   1.588
  603WAT     H2 2479   0.324   3.374   1.596
  603WAT    EPW 2480   0.352   3.294   1.577
  604WAT      O 2481   3.678   0.886   2.764
  604WAT     H1 2482   3.691   0.834   2.843
  604WAT     H2 2483   3.763   0.883   2.719
  604WAT    EPW 2484   3.691   0.879   2.768
  605WAT      O 2485   1.260   0.864   3.670
  605WAT     H1 2486   1.224   0.953   3.674
  605WAT     H2 2487   1.196   0.811   3.717
  605WAT    EPW 2488   1.246   0.869   3.677
  606WAT      O 2489   3.112   0.422   3.360
  606WAT     H1 2490   3.149   0.477   3.429
  606WAT     H2 2491   3.176   0.352   3.348
  606WAT    EPW 2492   3.125   0.420   3.368
  607WAT      O 2493  -0.002   3.129   2.088
  607WAT     H1 2494   0.087   3.121   2.054
  607WAT     H2 2495   0.004   3.197   2.155
  607WAT    EPW 2496   0.010   3.137   2.092
  608WAT      O 2497   0.934   3.716   1.667
  608WAT     H1 2498   0.864   3.688   1.608
  608WAT     H2 2499   0.997   3.760   1.610
  608WAT    EPW 2500   0.933   3.718   1.651
  609WAT      O 2501   2.955   1.696   3.071
  609WAT     H1 2502   2.943   1.697   3.166
  609WAT     H2 2503   3.036   1.745   3.056
  609WAT    EPW 2504   2.964   1.703   3.081
  610WAT      O 2505   0.588   1.495   3.161
  610WAT     H1 2506   0.518   1.478   3.223
  610WAT     H2 2507   0.543   1.531   3.084
  610WAT    EPW 2508   0.573   1.498   3.159
  611WAT      O 2509   2.306   1.492   3.460
  611WAT     H1 2510   2.240   1.472   3.394
  611WAT     H2 2511   2.304   1.588   3.467
  611WAT    EPW 2512   2.297   1.502   3.452
  612WAT      O 2513   0.988   2.779   0.866
  612WAT     H1 2514   0.970   2.687   0.884
  612WAT     H2 2515   1.045   2.806   0.937
  612WAT    EPW 2516   0.993   2.770   0.878
  613WAT      O 2517   3.326   2.068   1.810
  613WAT     H1 2518   3.263   2.062   1.738
  613WAT     H2 2519   3.276   2.040   1.887
  613WAT    EPW 2520   3.311   2.063   1.811
  614WAT      O 2521   0.159   0.731   1.436
  614WAT     H1 2522   0.080   0.693   1.397
  614WAT     H2 2523   0.229   0.671   1.412
  614WAT    EPW 2524   0.158   0.718   1.428
  615WAT      O 2525   3.407   1.058   0.360
  615WAT     H1 2526   3.422   1.063   0.454
  615WAT     H2 2527   3.494   1.040   0.323
  615WAT    EPW 2528   3.420   1.056   0.367
  616WAT      O 2529   0.953   2.416   2.462
  616WAT     H1 2530   1.031   2.468   2.444
  616WAT     H2 2531   0.949   2.354   2.389
  616WAT    EPW 2532   0.963   2.415   2.450
  617WAT      O 2533   3.137   0.526   4.029
  617WAT     H1 2534   3.133   0.524   4.125
  617WAT     H2 2535   3.222   0.565   4.010
  617WAT    EPW 2536   3.147   0.531   4.039
  618WAT      O 2537   3.225   3.657   3.513
  618WAT     H1 2538   3.240   3.623   3.602
  618WAT     H2 2539   3.277   3.600   3.457
  618WAT    EPW 2540   3.234   3.645   3.518
  619WAT      O 2541   2.659   2.114   1.173
  619WAT     H1 2542   2.670   2.197   1.219
  619WAT     H2 2543   2.568   2.090   1.189
  619WAT    EPW 2544   2.648   2.122   1.182
  620WAT      O 2545   2.065   3.529   3.965
  620WAT     H1 2546   1.973   3.506   3.979
  620WAT     H2 2547   2.105   3.450   3.931
  620WAT    EPW 2548   2.058   3.516   3.962
  621WAT      O 2549   2.568   2.110   3.443
  621WAT     H1 2550   2.643   2.084   3.497
  621WAT     H2 2551   2.552   2.201   3.467
  621WAT    EPW 2552   2.576   2.119   3.453
  622WAT      O 2553   1.443   2.390   1.395
  622WAT     H1 2554   1.358   2.426   1.422
  622WAT     H2 2555   1.421   2.325   1.328
  622WAT    EPW 2556   1.429   2.386   1.390
  623WAT      O 2557   2.242   1.422   1.510
  623WAT     H1 2558   2.196   1.500   1.541
  623WAT     H2 2559   2.246   1.366   1.588
  623WAT    EPW 2560   2.236   1.425   1.525
  624WAT      O 2561   1.706   3.471   2.735
  624WAT     H1 2562   1.622   3.501   2.701
  624WAT     H2 2563   1.743   3.418   2.665
  624WAT    EPW 2564   1.700   3.468   2.721
  625WAT      O 2565   3.567   0.697   2.163
  625WAT     H1 2566   3.575   0.698   2.258
  625WAT     H2 2567   3.656   0.687   2.132
  625WAT    EPW 2568   3.580   0.696   2.172
  626WAT      O 2569   1.566   0.221   0.407
  626WAT     H1 2570   1.509   0.218   0.330
  626WAT     H2 2571   1.653   0.202   0.372
  626WAT    EPW 2572   1.570   0.218   0.392
  627WAT      O 2573   1.230   0.061   1.762
  627WAT     H1 2574   1.287   0.055   1.838
  627WAT     H2 2575   1.184  -0.023   1.760
  627WAT    EPW 2576   1.231   0.049   1.772
  628WAT      O 2577   0.837   3.743   2.432
  628WAT     H1 2578   0.763   3.803   2.441
  628WAT     H2 2579   0.910   3.799   2.406
  628WAT    EPW 2580   0.837   3.758   2.430
  629WAT      O 2581   1.116   0.723   1.939
  629WAT     H1 2582   1.073   0.639   1.953
  629WAT     H2 2583   1.191   0.722   1.997
  629WAT    EPW 2584   1.120   0.712   1.949
  630WAT      O 2585   0.565   3.127   1.698
  630WAT     H1 2586   0.546   3.038   1.669
  630WAT     H2 2587   0.494   3.180   1.661
  630WAT    EPW 2588   0.553   3.122   1.689
  631WAT      O 2589   0.289   1.557   3.773
  631WAT     H1 2590   0.224   1.626   3.759
  631WAT     H2 2591   0.253   1.505   3.845
  631WAT    EPW 2592   0.276   1.559   3.781
  632WAT      O 2593   0.497   3.517   1.141
  632WAT     H1 2594   0.519   3.534   1.049
  632WAT     H2 2595   0.448   3.594   1.169
  632WAT    EPW 2596   0.494   3.530   1.133
  633WAT      O 2597   0.474   2.119   2.420
  633WAT     H1 2598   0.553   2.168   2.397
  633WAT     H2 2599   0.491   2.088   2.509
  633WAT    EPW 2600   0.487   2.121   2.429
  634WAT      O 2601   3.239   2.444   1.807
  634WAT     H1 2602   3.327   2.436   1.770
  634WAT     H2 2603   3.188   2.487   1.738
  634WAT    EPW 2604   3.244   2.449   1.793
  635WAT      O 2605   1.977   0.234   3.372
  635WAT     H1 2606   2.036   0.216   3.299
  635WAT     H2 2607   2.024   0.298   3.426
  635WAT    EPW 2608   1.991   0.240   3.370
  636WAT      O 2609   2.220   2.498   3.181
  636WAT     H1 2610   2.243   2.448   3.259
  636WAT     H2 2611   2.271   2.458   3.111
  636WAT    EPW 2612   2.230   2.486   3.182
  637WAT      O 2613   0.760   3.537   3.216
  637WAT     H1 2614   0.850   3.556   3.245
  637WAT     H2 2615   0.753   3.577   3.130
  637WAT    EPW 2616   0.771   3.544   3.209
  638WAT      O 2617   0.648   1.227   3.015
  638WAT     H1 2618   0.661   1.319   3.035
  638WAT     H2 2619   0.641   1.224   2.919
  638WAT    EPW 2620   0.649   1.239   3.005
  639WAT      O 2621   2.064   0.368   0.899
  639WAT     H1 2622   2.156   0.358   0.924
  639WAT     H2 2623   2.037   0.281   0.869
  639WAT    EPW 2624   2.072   0.355   0.899
  640WAT      O 2625   1.800   0.758   1.377
  640WAT     H1 2626   1.879   0.705   1.381
  640WAT     H2 2627   1.827   0.845   1.408
  640WAT    EPW 2628   1.814   0.763   1.381
  641WAT      O 2629   3.026   2.883   2.556
  641WAT     H1 2630   3.117   2.883   2.527
  641WAT     H2 2631   3.030   2.905   2.649
  641WAT    EPW 2632   3.038   2.886   2.564
  642WAT      O 2633   2.297   1.746   3.601
  642WAT     H1 2634   2.268   1.828   3.563
  642WAT     H2 2635   2.392   1.745   3.587
  642WAT    EPW 2636   2.306   1.756   3.594
  643WAT      O 2637   1.053   0.995   0.678
  643WAT     H1 2638   1.059   1.087   0.702
  643WAT     H2 2639   1.141   0.972   0.649
  643WAT    EPW 2640   1.066   1.004   0.677
  644WAT      O 2641   0.764   2.735   1.618
  644WAT     H1 2642   0.787   2.722   1.526
  644WAT     H2 2643   0.690   2.796   1.615
  644WAT    EPW 2644   0.758   2.741   1.605
  645WAT      O 2645   2.994   1.769   0.930
  645WAT     H1 2646   2.947   1.686   0.930
  645WAT     H2 2647   3.085   1.745   0.948
  645WAT    EPW 2648   3.000   1.755   0.932
  646WAT      O 2649   3.239   0.229   1.166
  646WAT     H1 2650   3.201   0.264   1.086
  646WAT     H2 2651   3.324   0.194   1.140
  646WAT    EPW 2652   3.245   0.229   1.152
  647WAT      O 2653   2.540   1.335   3.419
  647WAT     H1 2654   2.511   1.250   3.452
  647WAT     H2 2655   2.471   1.396   3.443
  647WAT    EPW 2656   2.527   1.332   3.426
  648WAT      O 2657   3.174   0.648   3.531
  648WAT     H1 2658   3.238   0.623   3.597
  648WAT     H2 2659   3.194   0.739   3.511
  648WAT    EPW 2660   3.185   0.656   3.537
  649WAT      O 2661   0.343   4.093   2.059
  649WAT     H1 2662   0.312   4.183   2.066
  649WAT     H2 2663   0.336   4.057   2.147
  649WAT    EPW 2664   0.338   4.100   2.071
  650WAT      O 2665   0.104   1.635   2.765
  650WAT     H1 2666   0.114   1.730   2.753
  650WAT     H2 2667   0.013   1.624   2.792
  650WAT    EPW 2668   0.094   1.646   2.767
  651WAT      O 2669   0.693   0.821   1.884
  651WAT     H1 2670   0.673   0.913   1.897
  651WAT     H2 2671   0.627   0.790   1.822
  651WAT    EPW 2672   0.682   0.829   1.878
  652WAT      O 2673   2.736   3.740   3.306
  652WAT     H1 2674   2.731   3.716   3.214
  652WAT     H2 2675   2.825   3.775   3.317
  652WAT    EPW 2676   2.747   3.742   3.296
  653WAT      O 2677   3.150   2.891   0.921
  653WAT     H1 2678   3.227   2.926   0.878
  653WAT     H2 2679   3.157   2.796   0.909
  653WAT    EPW 2680   3.161   2.883   0.914
  654WAT      O 2681   0.374   0.460   0.511
  654WAT     H1 2682   0.288   0.464   0.468
  654WAT     H2 2683   0.364   0.512   0.590
  654WAT    EPW 2684   0.362   0.467   0.516
  655WAT      O 2685   0.174   2.774   0.252
  655WAT     H1 2686   0.102   2.834   0.229
  655WAT     H2 2687   0.136   2.687   0.242
  655WAT    EPW 2688   0.159   2.771   0.248
  656WAT      O 2689   2.331   2.984   1.137
  656WAT     H1 2690   2.260   2.965   1.076
  656WAT     H2 2691   2.392   2.911   1.126
  656WAT    EPW 2692   2.330   2.972   1.128
  657WAT      O 2693   3.123   1.455   3.267
  657WAT     H1 2694   3.056   1.494   3.323
  657WAT     H2 2695   3.187   1.418   3.328
  657WAT    EPW 2696   3.123   1.455   3.282
  658WAT      O 2697   2.853   1.918   1.851
  658WAT     H1 2698   2.892   1.968   1.923
  658WAT     H2 2699   2.911   1.844   1.838
  658WAT    EPW 2700   2.866   1.915   1.859
  659WAT      O 2701   3.468   2.122   0.038
  659WAT     H1 2702   3.512   2.189   0.091
  659WAT     H2 2703   3.462   2.046   0.096
  659WAT    EPW 2704   3.473   2.120   0.052
  660WAT      O 2705   1.459   3.683   0.139
  660WAT     H1 2706   1.515   3.612   0.105
  660WAT     H2 2707   1.493   3.700   0.227
  660WAT    EPW 2708   1.471   3.676   0.146
  661WAT      O 2709   0.822   0.192   1.238
  661WAT     H1 2710   0.858   0.224   1.156
  661WAT     H2 2711   0.867   0.109   1.254
  661WAT    EPW 2712   0.832   0.186   1.230
  662WAT      O 2713   1.863   0.531   0.993
  662WAT     H1 2714   1.891   0.621   1.012
  662WAT     H2 2715   1.944   0.485   0.970
  662WAT    EPW 2716   1.878   0.537   0.992
  663WAT      O 2717   3.030   3.120   1.398
  663WAT     H1 2718   3.020   3.154   1.309
  663WAT     H2 2719   3.067   3.033   1.387
  663WAT    EPW 2720   3.034   3.113   1.385
  664WAT      O 2721   2.429   0.779   3.432
  664WAT     H1 2722   2.491   0.737   3.372
  664WAT     H2 2723   2.467   0.866   3.448
  664WAT    EPW 2724   2.442   0.785   3.427
  665WAT      O 2725   1.374   0.808   1.761
  665WAT     H1 2726   1.321   0.885   1.780
  665WAT     H2 2727   1.412   0.825   1.675
  665WAT    EPW 2728   1.372   0.820   1.752
  666WAT      O 2729   1.790   3.104   1.170
  666WAT     H1 2730   1.779   3.049   1.248
  666WAT     H2 2731   1.725   3.174   1.182
  666WAT    EPW 2732   1.780   3.106   1.182
  667WAT      O 2733   3.536   1.395   0.748
  667WAT     H1 2734   3.504   1.484   0.737
  667WAT     H2 2735   3.459   1.345   0.778
  667WAT    EPW 2736   3.522   1.400   0.751
  668WAT      O 2737   3.639   0.702   3.015
  668WAT     H1 2738   3.673   0.724   3.102
  668WAT     H2 2739   3.583   0.626   3.031
  668WAT    EPW 2740   3.636   0.695   3.029
  669WAT      O 2741   1.465   4.049   3.722
  669WAT     H1 2742   1.401   4.120   3.712
  669WAT     H2 2743   1.452   3.995   3.644
  669WAT    EPW 2744   1.455   4.051   3.710
  670WAT      O 2745   0.873   2.661   2.231
  670WAT     H1 2746   0.841   2.738   2.277
  670WAT     H2 2747   0.934   2.620   2.292
  670WAT    EPW 2748   0.877   2.666   2.245
  671WAT      O 2749   1.014   1.715   1.626
  671WAT     H1 2750   1.048   1.671   1.704
  671WAT     H2 2751   0.923   1.684   1.618
  671WAT    EPW 2752   1.006   1.705   1.635
  672WAT      O 2753   0.847   1.729   3.206
  672WAT     H1 2754   0.880   1.662   3.265
  672WAT     H2 2755   0.894   1.809   3.231
  672WAT    EPW 2756   0.857   1.731   3.217
  673WAT      O 2757   0.746   1.385   3.364
  673WAT     H1 2758   0.783   1.453   3.421
  673WAT     H2 2759   0.710   1.433   3.290
  673WAT    EPW 2760   0.746   1.400   3.362
  674WAT      O 2761   1.290   4.065   0.391
  674WAT     H1 2762   1.261   4.152   0.414
  674WAT     H2 2763   1.363   4.079   0.331
  674WAT    EPW 2764   1.296   4.078   0.386
  675WAT      O 2765   2.735   1.343   2.434
  675WAT     H1 2766   2.765   1.400   2.505
  675WAT     H2 2767   2.790   1.264   2.442
  675WAT    EPW 2768   2.746   1.340   2.444
  676WAT      O 2769   3.253   0.998   3.821
  676WAT     H1 2770   3.320   0.987   3.753
  676WAT     H2 2771   3.294   0.965   3.901
  676WAT    EPW 2772   3.268   0.992   3.823
  677WAT      O 2773   2.123   1.976   3.705
  677WAT     H1 2774   2.087   1.959   3.792
  677WAT     H2 2775   2.048   1.999   3.652
  677WAT    EPW 2776   2.109   1.977   3.710
  678WAT      O 2777   2.621   1.024   3.852
  678WAT     H1 2778   2.675   0.956   3.894
  678WAT     H2 2779   2.536   1.018   3.896
  678WAT    EPW 2780   2.617   1.014   3.864
  679WAT      O 2781   2.556   3.956   3.228
  679WAT     H1 2782   2.617   3.969   3.301
  679WAT     H2 2783   2.517   3.870   3.245
  679WAT    EPW 2784   2.559   3.946   3.240
  680WAT      O 2785   1.011   1.047   2.303
  680WAT     H1 2786   1.065   1.117   2.267
  680WAT     H2 2787   0.986   0.994   2.227
  680WAT    EPW 2788   1.015   1.049   2.288
  681WAT      O 2789   2.545   2.165   2.865
  681WAT     H1 2790   2.487   2.193   2.794
  681WAT     H2 2791   2.507   2.082   2.894
  681WAT    EPW 2792   2.532   2.158   2.859
  682WAT      O 2793   3.720   4.048   0.733
  682WAT     H1 2794   3.730   4.088   0.647
  682WAT     H2 2795   3.752   4.115   0.794
  682WAT    EPW 2796   3.725   4.062   0.730
  683WAT      O 2797   1.069   1.457   3.727
  683WAT     H1 2798   1.097   1.366   3.717
  683WAT     H2 2799   1.022   1.476   3.646
  683WAT    EPW 2800   1.066   1.447   3.715
  684WAT      O 2801   0.470   2.163   3.210
  684WAT     H1 2802   0.387   2.135   3.170
  684WAT     H2 2803   0.462   2.258   3.218
  684WAT    EPW 2804   0.458   2.172   3.206
  685WAT      O 2805   1.725   4.074   0.241
  685WAT     H1 2806   1.643   4.029   0.220
  685WAT     H2 2807   1.754   4.035   0.324
  685WAT    EPW 2808   1.718   4.063   0.249
  686WAT      O 2809   1.692   2.155   0.833
  686WAT     H1 2810   1.754   2.127   0.900
  686WAT     H2 2811   1.680   2.078   0.777
  686WAT    EPW 2812   1.699   2.141   0.834
  687WAT      O 2813   0.984   0.319   1.445
  687WAT     H1 2814   1.013   0.408   1.427
  687WAT     H2 2815   0.943   0.290   1.363
  687WAT    EPW 2816   0.982   0.327   1.432
  688WAT      O 2817   2.544   1.990   1.860
  688WAT     H1 2818   2.640   1.985   1.861
  688WAT     H2 2819   2.518   1.940   1.783
  688WAT    EPW 2820   2.553   1.983   1.850
  689WAT      O 2821   0.925   0.913   3.744
  689WAT     H1 2822   0.845   0.965   3.752
  689WAT     H2 2823   0.996   0.976   3.759
  689WAT    EPW 2824   0.924   0.928   3.747
  690WAT      O 2825   2.432   0.924   1.442
  690WAT     H1 2826   2.342   0.952   1.422
  690WAT     H2 2827   2.421   0.850   1.502
  690WAT    EPW 2828   2.419   0.918   1.447
  691WAT      O 2829   0.781   1.781   1.885
  691WAT     H1 2830   0.801   1.771   1.978
  691WAT     H2 2831   0.832   1.857   1.858
  691WAT    EPW 2832   0.790   1.790   1.894
  692WAT      O 2833   2.720   0.491   1.531
  692WAT     H1 2834   2.701   0.585   1.535
  692WAT     H2 2835   2.636   0.449   1.551
  692WAT    EPW 2836   2.706   0.498   1.534
  693WAT      O 2837   2.614   1.580   3.069
  693WAT     H1 2838   2.520   1.578   3.051
  693WAT     H2 2839   2.621   1.622   3.155
  693WAT    EPW 2840   2.602   1.586   3.078
  694WAT      O 2841   3.330   2.346   1.314
  694WAT     H1 2842   3.386   2.286   1.265
  694WAT     H2 2843   3.284   2.396   1.247
  694WAT    EPW 2844   3.331   2.345   1.299
  695WAT      O 2845   2.548   1.201   1.868
  695WAT     H1 2846   2.558   1.232   1.958
  695WAT     H2 2847   2.497   1.120   1.876
  695WAT    EPW 2848   2.543   1.194   1.881
  696WAT      O 2849   2.159   3.869   2.235
  696WAT     H1 2850   2.163   3.961   2.258
  696WAT     H2 2851   2.066   3.850   2.226
  696WAT    EPW 2852   2.148   3.878   2.237
  697WAT      O 2853   1.830   1.358   0.126
  697WAT     H1 2854   1.752   1.383   0.175
  697WAT     H2 2855   1.899   1.414   0.162
  697WAT    EPW 2856   1.829   1.369   0.138
  698WAT      O 2857   1.169   2.585   0.056
  698WAT     H1 2858   1.121   2.633   0.124
  698WAT     H2 2859   1.157   2.638  -0.023
  698WAT    EPW 2860   1.161   2.598   0.054
  699WAT      O 2861   3.495   1.818   1.572
  699WAT     H1 2862   3.546   1.744   1.539
  699WAT     H2 2863   3.404   1.793   1.558
  699WAT    EPW 2864   3.490   1.805   1.566
  700WAT      O 2865   0.230   0.041   0.847
  700WAT     H1 2866   0.303   0.021   0.789
  700WAT     H2 2867   0.235  -0.025   0.916
  700WAT    EPW 2868   0.240   0.029   0.848
  701WAT      O 2869   2.483   4.027   2.074
  701WAT     H1 2870   2.450   4.117   2.074
  701WAT     H2 2871   2.407   3.974   2.100
  701WAT    EPW 2872   2.468   4.032   2.078
  702WAT      O 2873   1.643   3.959   0.915
  702WAT     H1 2874   1.696   3.907   0.975
  702WAT     H2 2875   1.582   4.006   0.972
  702WAT    EPW 2876   1.642   3.958   0.931
  703WAT      O 2877   3.196   1.267   1.255
  703WAT     H1 2878   3.198   1.283   1.350
  703WAT     H2 2879   3.117   1.310   1.225
  703WAT    EPW 2880   3.186   1.275   1.264
  704WAT      O 2881   1.734   0.076   3.770
  704WAT     H1 2882   1.706   0.128   3.846
  704WAT     H2 2883   1.660   0.016   3.755
  704WAT    EPW 2884   1.720   0.075   3.778
  705WAT      O 2885   3.438   0.560   3.643
  705WAT     H1 2886   3.465   0.577   3.553
  705WAT     H2 2887   3.421   0.466   3.646
  705WAT    EPW 2888   3.439   0.550   3.632
  706WAT      O 2889   1.893   1.386   0.722
  706WAT     H1 2890   1.930   1.305   0.688
  706WAT     H2 2891   1.812   1.398   0.673
  706WAT    EPW 2892   1.887   1.377   0.711
  707WAT      O 2893   2.869   0.883   3.342
  707WAT     H1 2894   2.949   0.844   3.305
  707WAT     H2 2895   2.810   0.891   3.267
  707WAT    EPW 2896   2.872   0.879   3.327
  708WAT      O 2897   2.622   4.089   2.759
  708WAT     H1 2898   2.532   4.102   2.787
  708WAT     H2 2899   2.661   4.033   2.827
  708WAT    EPW 2900   2.616   4.083   2.772
  709WAT      O 2901   1.162   1.009   3.346
  709WAT     H1 2902   1.186   1.082   3.401
  709WAT     H2 2903   1.148   1.047   3.259
  709WAT    EPW 2904   1.163   1.023   3.342
  710WAT      O 2905   2.508   1.156   1.550
  710WAT     H1 2906   2.475   1.080   1.503
  710WAT     H2 2907   2.513   1.225   1.484
  710WAT    EPW 2908   2.504   1.155   1.535
  711WAT      O 2909   3.269   3.806   2.138
  711WAT     H1 2910   3.332   3.865   2.181
  711WAT     H2 2911   3.292   3.719   2.170
  711WAT    EPW 2912   3.280   3.803   2.148
  712WAT      O 2913   0.551   1.176   3.404
  712WAT     H1 2914   0.616   1.247   3.406
  712WAT     H2 2915   0.515   1.175   3.493
  712WAT    EPW 2916   0.555   1.185   3.416
  713WAT      O 2917   3.398   3.422   1.793
  713WAT     H1 2918   3.345   3.426   1.714
  713WAT     H2 2919   3.360   3.350   1.844
  713WAT    EPW 2920   3.386   3.413   1.789
  714WAT      O 2921   1.125   1.078   4.044
  714WAT     H1 2922   1.110   0.984   4.044
  714WAT     H2 2923   1.104   1.106   3.955
  714WAT    EPW 2924   1.120   1.070   4.032
  715WAT      O 2925   3.646   1.252   3.469
  715WAT     H1 2926   3.641   1.334   3.418
  715WAT     H2 2927   3.732   1.216   3.448
  715WAT    EPW 2928   3.656   1.258   3.459
  716WAT      O 2929   0.317   2.231   0.145
  716WAT     H1 2930   0.310   2.243   0.239
  716WAT     H2 2931   0.226   2.226   0.115
  716WAT    EPW 2932   0.304   2.232   0.153
  717WAT      O 2933   0.176   0.274   3.675
  717WAT     H1 2934   0.200   0.208   3.740
  717WAT     H2 2935   0.094   0.310   3.707
  717WAT    EPW 2936   0.169   0.270   3.688
  718WAT      O 2937   0.829   1.190   1.676
  718WAT     H1 2938   0.901   1.127   1.679
  718WAT     H2 2939   0.769   1.162   1.745
  718WAT    EPW 2940   0.831   1.178   1.685
  719WAT      O 2941   2.673   0.924   3.134
  719WAT     H1 2942   2.640   0.847   3.087
  719WAT     H2 2943   2.599   0.953   3.187
  719WAT    EPW 2944   2.659   0.917   3.135
  720WAT      O 2945   0.518   2.440   3.234
  720WAT     H1 2946   0.553   2.480   3.313
  720WAT     H2 2947   0.562   2.486   3.162
  720WAT    EPW 2948   0.528   2.452   3.235
  721WAT      O 2949   1.749   1.910   3.751
  721WAT     H1 2950   1.672   1.963   3.773
  721WAT     H2 2951   1.774   1.940   3.664
  721WAT    EPW 2952   1.742   1.921   3.743
  722WAT      O 2953   2.852   2.027   2.377
  722WAT     H1 2954   2.809   2.020   2.463
  722WAT     H2 2955   2.782   2.014   2.314
  722WAT    EPW 2956   2.837   2.024   2.380
  723WAT      O 2957   0.001   4.019   0.100
  723WAT     H1 2958   0.018   4.062   0.183
  723WAT     H2 2959   0.046   3.935   0.107
  723WAT    EPW 2960   0.010   4.013   0.112
  724WAT      O 2961   0.987   3.982   0.351
  724WAT     H1 2962   0.968   4.073   0.328
  724WAT     H2 2963   1.080   3.982   0.373
  724WAT    EPW 2964   0.997   3.994   0.351
  725WAT      O 2965   0.174   0.195   2.167
  725WAT     H1 2966   0.134   0.124   2.216
  725WAT     H2 2967   0.193   0.262   2.232
  725WAT    EPW 2968   0.171   0.194   2.182
  726WAT      O 2969   1.119   1.669   2.713
  726WAT     H1 2970   1.185   1.738   2.703
  726WAT     H2 2971   1.150   1.615   2.786
  726WAT    EPW 2972   1.132   1.671   2.721
  727WAT      O 2973   0.756   3.506   3.884
  727WAT     H1 2974   0.744   3.516   3.790
  727WAT     H2 2975   0.815   3.430   3.893
  727WAT    EPW 2976   0.762   3.497   3.873
  728WAT      O 2977   2.379   0.453   1.465
  728WAT     H1 2978   2.339   0.523   1.517
  728WAT     H2 2979   2.355   0.372   1.512
  728WAT    EPW 2980   2.370   0.451   1.478
  729WAT      O 2981   1.145   3.095   3.940
  729WAT     H1 2982   1.110   3.103   3.851
  729WAT     H2 2983   1.094   3.158   3.991
  729WAT    EPW 2984   1.134   3.104   3.935
  730WAT      O 2985   3.046   2.985   1.877
  730WAT     H1 2986   3.009   2.959   1.792
  730WAT     H2 2987   3.110   2.917   1.897
  730WAT    EPW 2988   3.049   2.972   1.869
  731WAT      O 2989   3.677   2.428   0.965
  731WAT     H1 2990   3.734   2.434   1.042
  731WAT     H2 2991   3.618   2.356   0.985
  731WAT    EPW 2992   3.677   2.419   0.977
  732WAT      O 2993   2.045   3.792   0.311
  732WAT     H1 2994   2.042   3.766   0.218
  732WAT     H2 2995   1.995   3.723   0.356
  732WAT    EPW 2996   2.038   3.779   0.304
  733WAT      O 2997   0.642   2.671   1.006
  733WAT     H1 2998   0.572   2.615   1.041
  733WAT     H2 2999   0.646   2.648   0.913
  733WAT    EPW 3000   0.633   2.660   0.998
  734WAT      O 3001   3.487   1.226   1.201
  734WAT     H1 3002   3.520   1.252   1.115
  734WAT     H2 3003   3.391   1.230   1.192
  734WAT    EPW 3004   3.478   1.230   1.188
  735WAT      O 3005   1.179   3.606   2.887
  735WAT     H1 3006   1.105   3.658   2.856
  735WAT     H2 3007   1.140   3.544   2.949
  735WAT    EPW 3008   1.164   3.605   2.891
  736WAT      O 3009   1.730   0.745   1.735
  736WAT     H1 3010   1.703   0.802   1.663
  736WAT     H2 3011   1.761   0.805   1.802
  736WAT    EPW 3012   1.731   0.760   1.734
  737WAT      O 3013   3.250   2.348   3.672
  737WAT     H1 3014   3.252   2.335   3.577
  737WAT     H2 3015   3.157   2.346   3.695
  737WAT    EPW 3016   3.238   2.346   3.663
  738WAT      O 3017   1.382   1.480   1.146
  738WAT     H1 3018   1.343   1.561   1.179
  738WAT     H2 3019   1.475   1.487   1.170
  738WAT    EPW 3020   1.389   1.492   1.154
  739WAT      O 3021   3.215   2.353   2.235
  739WAT     H1 3022   3.228   2.259   2.246
  739WAT     H2 3023   3.120   2.365   2.238
  739WAT    EPW 3024   3.204   2.343   2.237
  740WAT      O 3025   3.083   3.102   0.044
  740WAT     H1 3026   3.174   3.073   0.037
  740WAT     H2 3027   3.062   3.137  -0.042
  740WAT    EPW 3028   3.093   3.103   0.032
  741WAT      O 3029   3.182   1.152   3.353
  741WAT     H1 3030   3.217   1.180   3.269
  741WAT     H2 3031   3.090   1.178   3.350
  741WAT    EPW 3032   3.174   1.159   3.341
  742WAT      O 3033   2.274   2.860   2.652
  742WAT     H1 3034   2.190   2.860   2.607
  742WAT     H2 3035   2.314   2.943   2.629
  742WAT    EPW 3036   2.268   2.871   2.643
  743WAT      O 3037   1.716   2.924   1.408
  743WAT     H1 3038   1.782   2.868   1.448
  743WAT     H2 3039   1.725   3.008   1.453
  743WAT    EPW 3040   1.726   2.928   1.419
  744WAT      O 3041   1.878   3.398   3.066
  744WAT     H1 3042   1.943   3.431   3.004
  744WAT     H2 3043   1.801   3.453   3.052
  744WAT    EPW 3044   1.876   3.410   3.056
  745WAT      O 3045   0.757   3.793   0.910
  745WAT     H1 3046   0.788   3.771   0.998
  745WAT     H2 3047   0.706   3.716   0.884
  745WAT    EPW 3048   0.754   3.780   0.918
  746WAT      O 3049   0.481   3.443   0.204
  746WAT     H1 3050   0.569   3.436   0.240
  746WAT     H2 3051   0.478   3.530   0.164
  746WAT    EPW 3052   0.492   3.454   0.203
  747WAT      O 3053   0.555   4.110   1.265
  747WAT     H1 3054   0.598   4.146   1.188
  747WAT     H2 3055   0.471   4.156   1.268
  747WAT    EPW 3056   0.549   4.121   1.255
  748WAT      O 3057   3.101   3.851   1.485
  748WAT     H1 3058   3.067   3.878   1.571
  748WAT     H2 3059   3.030   3.798   1.448
  748WAT    EPW 3060   3.087   3.848   1.491
  749WAT      O 3061   2.692   2.499   2.585
  749WAT     H1 3062   2.622   2.563   2.579
  749WAT     H2 3063   2.693   2.473   2.677
  749WAT    EPW 3064   2.683   2.504   2.596
  750WAT      O 3065   1.315   2.649   0.623
  750WAT     H1 3066   1.273   2.713   0.564
  750WAT     H2 3067   1.264   2.569   0.611
  750WAT    EPW 3068   1.303   2.647   0.613
  751WAT      O 3069   1.205   2.974   1.161
  751WAT     H1 3070   1.284   2.988   1.108
  751WAT     H2 3071   1.233   2.989   1.251
  751WAT    EPW 3072   1.219   2.978   1.166
  752WAT      O 3073   3.445   1.348   3.826
  752WAT     H1 3074   3.476   1.259   3.812
  752WAT     H2 3075   3.516   1.391   3.874
  752WAT    EPW 3076   3.459   1.342   3.831
  753WAT      O 3077   0.082   1.123   2.878
  753WAT     H1 3078   0.156   1.073   2.915
  753WAT     H2 3079   0.121   1.207   2.852
  753WAT    EPW 3080   0.097   1.127   2.879
  754WAT      O 3081   1.908   3.950   0.748
  754WAT     H1 3082   1.813   3.954   0.751
  754WAT     H2 3083   1.934   3.917   0.835
  754WAT    EPW 3084   1.899   3.946   0.760
  755WAT      O 3085   2.906   3.957   0.205
  755WAT     H1 3086   2.872   3.975   0.118
  755WAT     H2 3087   2.904   4.042   0.250
  755WAT    EPW 3088   2.901   3.970   0.200
  756WAT      O 3089   1.725   1.013   3.728
  756WAT     H1 3090   1.650   0.981   3.776
  756WAT     H2 3091   1.737   1.103   3.759
  756WAT    EPW 3092   1.717   1.021   3.738
  757WAT      O 3093   3.411   3.222   0.207
  757WAT     H1 3094   3.404   3.161   0.134
  757WAT     H2 3095   3.478   3.184   0.264
  757WAT    EPW 3096   3.419   3.209   0.205
  758WAT      O 3097   1.912   0.826   0.851
  758WAT     H1 3098   1.856   0.838   0.774
  758WAT     H2 3099   1.851   0.809   0.923
  758WAT    EPW 3100   1.897   0.826   0.850
  759WAT      O 3101   0.366   0.589   0.763
  759WAT     H1 3102   0.413   0.608   0.844
  759WAT     H2 3103   0.298   0.657   0.759
  759WAT    EPW 3104   0.363   0.601   0.773
  760WAT      O 3105   1.465   3.658   1.148
  760WAT     H1 3106   1.416   3.591   1.196
  760WAT     H2 3107   1.532   3.688   1.211
  760WAT    EPW 3108   1.468   3.653   1.163
  761WAT      O 3109   1.742   0.049   1.839
  761WAT     H1 3110   1.774   0.138   1.855
  761WAT     H2 3111   1.715   0.017   1.925
  761WAT    EPW 3112   1.743   0.056   1.853
  762WAT      O 3113   3.243   3.946   3.703
  762WAT     H1 3114   3.335   3.931   3.726
  762WAT     H2 3115   3.244   3.959   3.608
  762WAT    EPW 3116   3.255   3.946   3.694
  763WAT      O 3117   0.345   2.485   3.588
  763WAT     H1 3118   0.305   2.524   3.511
  763WAT     H2 3119   0.289   2.511   3.661
  763WAT    EPW 3120   0.333   2.493   3.587
  764WAT      O 3121   0.675   4.040   2.474
  764WAT     H1 3122   0.703   4.041   2.383
  764WAT     H2 3123   0.583   4.063   2.472
  764WAT    EPW 3124   0.667   4.043   2.462
  765WAT      O 3125   1.741   4.047   3.193
  765WAT     H1 3126   1.800   3.971   3.188
  765WAT     H2 3127   1.778   4.101   3.263
  765WAT    EPW 3128   1.754   4.044   3.201
  766WAT      O 3129   2.580   3.223   2.329
  766WAT     H1 3130   2.531   3.142   2.312
  766WAT     H2 3131   2.534   3.263   2.403
  766WAT    EPW 3132   2.567   3.217   2.337
  767WAT      O 3133   1.433   3.890   3.493
  767WAT     H1 3134   1.432   3.944   3.413
  767WAT     H2 3135   1.382   3.812   3.469
  767WAT    EPW 3136   1.426   3.887   3.479
  768WAT      O 3137   2.600   3.288   0.556
  768WAT     H1 3138   2.543   3.355   0.595
  768WAT     H2 3139   2.582   3.292   0.463
  768WAT    EPW 3140   2.590   3.298   0.549
  769WAT      O 3141   1.943   3.131   0.405
  769WAT     H1 3142   1.915   3.222   0.415
  769WAT     H2 3143   1.899   3.101   0.325
  769WAT    EPW 3144   1.933   3.139   0.396
  770WAT      O 3145   2.890   2.235   1.389
  770WAT     H1 3146   2.886   2.277   1.303
  770WAT     H2 3147   2.862   2.145   1.373
  770WAT    EPW 3148   2.886   2.229   1.375
  771WAT      O 3149   0.011   1.664   0.185
  771WAT     H1 3150   0.021   1.609   0.263
  771WAT     H2 3151  -0.006   1.602   0.114
  771WAT    EPW 3152   0.010   1.648   0.186
  772WAT      O 3153   3.379   0.935   1.875
  772WAT     H1 3154   3.420   0.967   1.955
  772WAT     H2 3155   3.306   0.994   1.860
  772WAT    EPW 3156   3.375   0.947   1.884
  773WAT      O 3157   1.948   2.621   3.062
  773WAT     H1 3158   1.893   2.552   3.025
  773WAT     H2 3159   2.010   2.575   3.119
  773WAT    EPW 3160   1.949   2.606   3.065
  774WAT      O 3161   3.282   0.104   3.084
  774WAT     H1 3162   3.240   0.027   3.123
  774WAT     H2 3163   3.354   0.068   3.032
  774WAT    EPW 3164   3.286   0.089   3.082
  775WAT      O 3165   1.789   1.164   0.363
  775WAT     H1 3166   1.806   1.222   0.289
  775WAT     H2 3167   1.872   1.160   0.410
  775WAT    EPW 3168   1.802   1.171   0.359
  776WAT      O 3169   0.053   2.601   1.988
  776WAT     H1 3170   0.116   2.537   2.021
  776WAT     H2 3171   0.068   2.603   1.894
  776WAT    EPW 3172   0.064   2.593   1.980
  777WAT      O 3173   2.478   2.779   1.789
  777WAT     H1 3174   2.512   2.730   1.864
  777WAT     H2 3175   2.453   2.712   1.725
  777WAT    EPW 3176   2.479   2.764   1.790
  778WAT      O 3177   1.631   1.879   0.706
  778WAT     H1 3178   1.592   1.909   0.623
  778WAT     H2 3179   1.689   1.808   0.681
  778WAT    EPW 3180   1.634   1.874   0.692
  779WAT      O 3181   1.386   1.745   3.929
  779WAT     H1 3182   1.422   1.656   3.920
  779WAT     H2 3183   1.292   1.734   3.915
  779WAT    EPW 3184   1.378   1.732   3.926
  780WAT      O 3185   3.681   1.233   0.120
  780WAT     H1 3186   3.638   1.192   0.046
  780WAT     H2 3187   3.774   1.215   0.108
  780WAT    EPW 3188   3.687   1.226   0.109
  781WAT      O 3189   1.994   2.835   1.243
  781WAT     H1 3190   2.044   2.875   1.172
  781WAT     H2 3191   2.053   2.771   1.281
  781WAT    EPW 3192   2.008   2.832   1.238
  782WAT      O 3193   1.733   2.765   0.523
  782WAT     H1 3194   1.724   2.860   0.518
  782WAT     H2 3195   1.681   2.739   0.598
  782WAT    EPW 3196   1.725   2.774   0.532
  783WAT      O 3197   3.486   0.029   2.914
  783WAT     H1 3198   3.529   0.107   2.952
  783WAT     H2 3199   3.526  -0.044   2.960
  783WAT    EPW 3200   3.497   0.030   2.925
  784WAT      O 3201   1.923   3.725   2.874
  784WAT     H1 3202   1.977   3.664   2.924
  784WAT     H2 3203   1.841   3.678   2.857
  784WAT    EPW 3204   1.919   3.711   2.878
  785WAT      O 3205   2.533   3.447   1.596
  785WAT     H1 3206   2.448   3.426   1.556
  785WAT     H2 3207   2.534   3.542   1.601
  785WAT    EPW 3208   2.522   3.457   1.591
  786WAT      O 3209   1.967   0.342   3.703
  786WAT     H1 3210   1.996   0.433   3.696
  786WAT     H2 3211   1.877   0.343   3.669
  786WAT    EPW 3212   1.959   0.354   3.697
  787WAT      O 3213   1.785   0.827   2.053
  787WAT     H1 3214   1.773   0.733   2.070
  787WAT     H2 3215   1.696   0.863   2.055
  787WAT    EPW 3216   1.772   0.819   2.055
  788WAT      O 3217   1.387   0.646   2.585
  788WAT     H1 3218   1.363   0.554   2.580
  788WAT     H2 3219   1.376   0.669   2.678
  788WAT    EPW 3220   1.382   0.637   2.597
  789WAT      O 3221   3.673   2.234   3.672
  789WAT     H1 3222   3.605   2.182   3.629
  789WAT     H2 3223   3.659   2.323   3.639
  789WAT    EPW 3224   3.662   2.239   3.662
  790WAT      O 3225   0.650   2.227   2.900
  790WAT     H1 3226   0.630   2.307   2.949
  790WAT     H2 3227   0.702   2.256   2.825
  790WAT    EPW 3228   0.654   2.241   2.897
  791WAT      O 3229   1.121   1.639   1.029
  791WAT     H1 3230   1.141   1.721   0.982
  791WAT     H2 3231   1.029   1.622   1.007
  791WAT    EPW 3232   1.111   1.648   1.020
  792WAT      O 3233   1.786   1.656   3.992
  792WAT     H1 3234   1.860   1.715   3.982
  792WAT     H2 3235   1.743   1.685   4.073
  792WAT    EPW 3236   1.790   1.668   4.002
  793WAT      O 3237   2.711   0.394   0.477
  793WAT     H1 3238   2.692   0.443   0.558
  793WAT     H2 3239   2.687   0.304   0.498
  793WAT    EPW 3240   2.706   0.388   0.491
  794WAT      O 3241   2.288   1.496   2.393
  794WAT     H1 3242   2.300   1.457   2.480
  794WAT     H2 3243   2.193   1.499   2.382
  794WAT    EPW 3244   2.277   1.491   2.403
  795WAT      O 3245   3.034   3.336   3.451
  795WAT     H1 3246   3.110   3.287   3.481
  795WAT     H2 3247   2.977   3.270   3.412
  795WAT    EPW 3248   3.037   3.321   3.450
  796WAT      O 3249   1.992   0.807   3.216
  796WAT     H1 3250   1.898   0.803   3.233
  796WAT     H2 3251   2.010   0.728   3.164
  796WAT    EPW 3252   1.982   0.796   3.211
  797WAT      O 3253   2.746   1.075   2.897
  797WAT     H1 3254   2.707   1.153   2.856
  797WAT     H2 3255   2.689   1.057   2.971
  797WAT    EPW 3256   2.733   1.083   2.901
  798WAT      O 3257   0.062   2.563   1.718
  798WAT     H1 3258   0.082   2.478   1.680
  798WAT     H2 3259  -0.030   2.577   1.699
  798WAT    EPW 3260   0.053   2.554   1.711
  799WAT      O 3261   2.674   3.255   2.857
  799WAT     H1 3262   2.737   3.287   2.922
  799WAT     H2 3263   2.593   3.244   2.906
  799WAT    EPW 3264   2.672   3.258   2.872
  800WAT      O 3265   1.813   3.140   2.053
  800WAT     H1 3266   1.848   3.194   2.124
  800WAT     H2 3267   1.720   3.128   2.075
  800WAT    EPW 3268   1.805   3.146   2.065
  801WAT      O 3269   2.899   1.200   3.695
  801WAT     H1 3270   2.927   1.114   3.725
  801WAT     H2 3271   2.887   1.190   3.600
  801WAT    EPW 3272   2.901   1.188   3.686
  802WAT      O 3273   1.038   3.559   3.552
  802WAT     H1 3274   1.069   3.477   3.590
  802WAT     H2 3275   1.032   3.541   3.458
  802WAT    EPW 3276   1.042   3.546   3.544
  803WAT      O 3277   2.884   1.595   0.010
  803WAT     H1 3278   2.896   1.503   0.033
  803WAT     H2 3279   2.973   1.631   0.009
  803WAT    EPW 3280   2.897   1.588   0.013
  804WAT      O 3281   1.675   0.192   0.072
  804WAT     H1 3282   1.682   0.099   0.093
  804WAT     H2 3283   1.766   0.221   0.064
  804WAT    EPW 3284   1.688   0.184   0.074
  805WAT      O 3285   1.286   4.051   1.329
  805WAT     H1 3286   1.247   3.978   1.377
  805WAT     H2 3287   1.298   4.119   1.394
  805WAT    EPW 3288   1.283   4.050   1.344
  806WAT      O 3289   0.618   3.737   1.549
  806WAT     H1 3290   0.634   3.768   1.460
  806WAT     H2 3291   0.586   3.648   1.539
  806WAT    EPW 3292   0.616   3.729   1.536
  807WAT      O 3293   1.677   2.493   0.276
  807WAT     H1 3294   1.658   2.489   0.370
  807WAT     H2 3295   1.657   2.406   0.244
  807WAT    EPW 3296   1.672   2.481   0.284
  808WAT      O 3297   0.835   2.178   1.522
  808WAT     H1 3298   0.842   2.271   1.500
  808WAT     H2 3299   0.923   2.155   1.553
  808WAT    EPW 3300   0.848   2.187   1.523
  809WAT      O 3301   0.394   0.596   2.156
  809WAT     H1 3302   0.383   0.683   2.194
  809WAT     H2 3303   0.326   0.591   2.088
  809WAT    EPW 3304   0.383   0.606   2.152
  810WAT      O 3305   1.284   0.929   2.678
  810WAT     H1 3306   1.276   0.923   2.773
  810WAT     H2 3307   1.209   0.980   2.650
  810WAT    EPW 3308   1.273   0.935   2.687
  811WAT      O 3309   0.145   3.404   3.861
  811WAT     H1 3310   0.207   3.354   3.914
  811WAT     H2 3311   0.185   3.491   3.853
  811WAT    EPW 3312   0.159   3.409   3.867
  812WAT      O 3313   2.267   0.182   2.544
  812WAT     H1 3314   2.310   0.123   2.482
  812WAT     H2 3315   2.278   0.139   2.629
  812WAT    EPW 3316   2.274   0.169   2.547
  813WAT      O 3317   1.760   3.910   2.648
  813WAT     H1 3318   1.845   3.949   2.629
  813WAT     H2 3319   1.766   3.821   2.614
  813WAT    EPW 3320   1.772   3.903   2.641
  814WAT      O 3321   0.943   3.266   0.288
  814WAT     H1 3322   1.031   3.239   0.260
  814WAT     H2 3323   0.887   3.240   0.215
  814WAT    EPW 3324   0.947   3.259   0.275
  815WAT      O 3325   1.162   3.862   1.085
  815WAT     H1 3326   1.142   3.786   1.140
  815WAT     H2 3327   1.252   3.886   1.109
  815WAT    EPW 3328   1.171   3.855   1.095
  816WAT      O 3329   2.112   1.340   0.930
  816WAT     H1 3330   2.189   1.392   0.953
  816WAT     H2 3331   2.052   1.403   0.889
  816WAT    EPW 3332   2.114   1.356   0.928
  817WAT      O 3333   3.250   2.482   0.533
  817WAT     H1 3334   3.164   2.480   0.574
  817WAT     H2 3335   3.251   2.406   0.476
  817WAT    EPW 3336   3.239   2.472   0.531
  818WAT      O 3337   3.739   3.743   2.979
  818WAT     H1 3338   3.819   3.746   3.030
  818WAT     H2 3339   3.764   3.776   2.893
  818WAT    EPW 3340   3.752   3.748   2.974
  819WAT      O 3341   1.643   2.827   2.683
  819WAT     H1 3342   1.709   2.769   2.644
  819WAT     H2 3343   1.665   2.914   2.650
  819WAT    EPW 3344   1.655   2.830   2.673
  820WAT      O 3345   3.201   3.267   0.862
  820WAT     H1 3346   3.153   3.247   0.782
  820WAT     H2 3347   3.237   3.355   0.848
  820WAT    EPW 3348   3.200   3.276   0.850
  821WAT      O 3349   2.594   2.570   1.976
  821WAT     H1 3350   2.671   2.627   1.977
  821WAT     H2 3351   2.630   2.482   1.989
  821WAT    EPW 3352   2.609   2.566   1.978
  822WAT      O 3353   0.654   0.647   0.905
  822WAT     H1 3354   0.727   0.679   0.959
  822WAT     H2 3355   0.680   0.669   0.815
  822WAT    EPW 3356   0.667   0.654   0.900
  823WAT      O 3357   2.620   3.797   3.572
  823WAT     H1 3358   2.657   3.769   3.488
  823WAT     H2 3359   2.694   3.795   3.633
  823WAT    EPW 3360   2.634   3.793   3.569
  824WAT      O 3361   0.608   2.940   0.615
  824WAT     H1 3362   0.649   2.995   0.681
  824WAT     H2 3363   0.567   3.002   0.554
  824WAT    EPW 3364   0.608   2.956   0.615
  825WAT      O 3365   3.396   0.528   1.049
  825WAT     H1 3366   3.323   0.579   1.013
  825WAT     H2 3367   3.362   0.492   1.131
  825WAT    EPW 3368   3.382   0.530   1.055
  826WAT      O 3369   2.647   1.365   3.682
  826WAT     H1 3370   2.715   1.305   3.715
  826WAT     H2 3371   2.636   1.340   3.590
  826WAT    EPW 3372   2.654   1.354   3.674
  827WAT      O 3373   2.512   0.208   3.954
  827WAT     H1 3374   2.480   0.226   4.042
  827WAT     H2 3375   2.531   0.294   3.917
  827WAT    EPW 3376   2.511   0.222   3.961
  828WAT      O 3377   1.463   3.023   1.035
  828WAT     H1 3378   1.527   2.971   1.085
  828WAT     H2 3379   1.486   3.114   1.055
  828WAT    EPW 3380   1.475   3.028   1.045
  829WAT      O 3381   2.829   3.585   1.590
  829WAT     H1 3382   2.795   3.584   1.680
  829WAT     H2 3383   2.924   3.575   1.601
  829WAT    EPW 3384   2.837   3.584   1.604
  830WAT      O 3385   3.369   3.139   2.332
  830WAT     H1 3386   3.290   3.154   2.280
  830WAT     H2 3387   3.367   3.206   2.400
  830WAT    EPW 3388   3.359   3.150   2.334
  831WAT      O 3389   1.384   1.150   2.902
  831WAT     H1 3390   1.462   1.169   2.850
  831WAT     H2 3391   1.311   1.170   2.844
  831WAT    EPW 3392   1.385   1.155   2.887
  832WAT      O 3393   1.652   2.404   2.059
  832WAT     H1 3394   1.745   2.384   2.072
  832WAT     H2 3395   1.609   2.319   2.061
  832WAT    EPW 3396   1.659   2.390   2.061
  833WAT      O 3397   2.501   1.387   1.371
  833WAT     H1 3398   2.582   1.434   1.394
  833WAT     H2 3399   2.437   1.418   1.436
  833WAT    EPW 3400   2.504   1.397   1.383
  834WAT      O 3401   2.235   2.604   0.411
  834WAT     H1 3402   2.257   2.637   0.324
  834WAT     H2 3403   2.142   2.584   0.407
  834WAT    EPW 3404   2.226   2.606   0.399
  835WAT      O 3405   1.391   1.739   3.264
  835WAT     H1 3406   1.438   1.784   3.333
  835WAT     H2 3407   1.324   1.801   3.236
  835WAT    EPW 3408   1.388   1.753   3.270
  836WAT      O 3409   0.653   0.723   3.606
  836WAT     H1 3410   0.675   0.709   3.698
  836WAT     H2 3411   0.719   0.674   3.558
  836WAT    EPW 3412   0.664   0.714   3.612
  837WAT      O 3413   2.730   3.651   0.975
  837WAT     H1 3414   2.670   3.599   0.922
  837WAT     H2 3415   2.817   3.617   0.954
  837WAT    EPW 3416   2.734   3.640   0.965
  838WAT      O 3417   2.804   3.395   2.220
  838WAT     H1 3418   2.797   3.488   2.200
  838WAT     H2 3419   2.720   3.372   2.259
  838WAT    EPW 3420   2.792   3.404   2.222
  839WAT      O 3421   0.755   1.039   0.738
  839WAT     H1 3422   0.843   1.015   0.709
  839WAT     H2 3423   0.769   1.100   0.810
  839WAT    EPW 3424   0.768   1.044   0.744
  840WAT      O 3425   2.176   3.645   3.158
  840WAT     H1 3426   2.112   3.617   3.223
  840WAT     H2 3427   2.249   3.679   3.210
  840WAT    EPW 3428   2.177   3.645   3.173
  841WAT      O 3429   2.672   1.722   3.369
  841WAT     H1 3430   2.683   1.815   3.348
  841WAT     H2 3431   2.761   1.688   3.373
  841WAT    EPW 3432   2.685   1.730   3.367
  842WAT      O 3433   0.507   0.691   3.170
  842WAT     H1 3434   0.537   0.751   3.238
  842WAT     H2 3435   0.411   0.696   3.174
  842WAT    EPW 3436   0.498   0.699   3.179
  843WAT      O 3437   3.534   2.633   1.696
  843WAT     H1 3438   3.534   2.598   1.785
  843WAT     H2 3439   3.442   2.639   1.672
  843WAT    EPW 3440   3.522   2.629   1.704
  844WAT      O 3441   1.517   0.878   2.039
  844WAT     H1 3442   1.516   0.916   1.951
  844WAT     H2 3443   1.435   0.907   2.078
  844WAT    EPW 3444   1.506   0.887   2.032
  845WAT      O 3445   2.446   2.275   1.873
  845WAT     H1 3446   2.445   2.179   1.870
  845WAT     H2 3447   2.501   2.301   1.799
  845WAT    EPW 3448   2.453   2.265   1.863
  846WAT      O 3449   1.129   0.198   2.786
  846WAT     H1 3450   1.045   0.244   2.788
  846WAT     H2 3451   1.131   0.154   2.701
  846WAT    EPW 3452   1.118   0.198   2.775
  847WAT      O 3453   3.178   0.213   0.240
  847WAT     H1 3454   3.090   0.230   0.273
  847WAT     H2 3455   3.167   0.206   0.145
  847WAT    EPW 3456   3.165   0.214   0.232
  848WAT      O 3457   3.632   1.820   3.909
  848WAT     H1 3458   3.548   1.839   3.866
  848WAT     H2 3459   3.621   1.854   3.998
  848WAT    EPW 3460   3.620   1.827   3.915
  849WAT      O 3461   0.219   2.164   3.815
  849WAT     H1 3462   0.124   2.164   3.801
  849WAT     H2 3463   0.231   2.119   3.900
  849WAT    EPW 3464   0.208   2.158   3.825
  850WAT      O 3465   3.517   0.036   2.159
  850WAT     H1 3466   3.568  -0.002   2.088
  850WAT     H2 3467   3.482   0.117   2.123
  850WAT    EPW 3468   3.519   0.041   2.145
  851WAT      O 3469   1.469   1.349   3.588
  851WAT     H1 3470   1.431   1.295   3.658
  851WAT     H2 3471   1.419   1.430   3.592
  851WAT    EPW 3472   1.457   1.353   3.598
  852WAT      O 3473   3.337   3.618   1.516
  852WAT     H1 3474   3.272   3.605   1.585
  852WAT     H2 3475   3.398   3.682   1.552
  852WAT    EPW 3476   3.337   3.625   1.530
  853WAT      O 3477   1.480   3.788   1.827
  853WAT     H1 3478   1.411   3.781   1.893
  853WAT     H2 3479   1.543   3.720   1.852
  853WAT    EPW 3480   1.479   3.778   1.839
  854WAT      O 3481   0.711   3.445   0.345
  854WAT     H1 3482   0.790   3.465   0.294
  854WAT     H2 3483   0.708   3.349   0.348
  854WAT    EPW 3484   0.721   3.435   0.338
  855WAT      O 3485   2.204   2.272   3.992
  855WAT     H1 3486   2.251   2.317   4.063
  855WAT     H2 3487   2.240   2.184   3.992
  855WAT    EPW 3488   2.215   2.266   4.001
  856WAT      O 3489   3.567   1.071   3.956
  856WAT     H1 3490   3.639   1.008   3.958
  856WAT     H2 3491   3.496   1.028   4.002
  856WAT    EPW 3492   3.567   1.057   3.962
  857WAT      O 3493   1.550   2.644   2.148
  857WAT     H1 3494   1.569   2.559   2.107
  857WAT     H2 3495   1.456   2.641   2.166
  857WAT    EPW 3496   1.540   2.632   2.145
  858WAT      O 3497   1.717   3.192   2.978
  858WAT     H1 3498   1.768   3.251   3.033
  858WAT     H2 3499   1.672   3.250   2.916
  858WAT    EPW 3500   1.718   3.208   2.977
  859WAT      O 3501   2.476   2.633   3.533
  859WAT     H1 3502   2.497   2.664   3.445
  859WAT     H2 3503   2.469   2.713   3.585
  859WAT    EPW 3504   2.478   2.648   3.528
  860WAT      O 3505   1.778   4.074   1.274
  860WAT     H1 3506   1.710   4.114   1.219
  860WAT     H2 3507   1.848   4.139   1.277
  860WAT    EPW 3508   1.778   4.088   1.267
  861WAT      O 3509   1.074   2.994   0.649
  861WAT     H1 3510   1.049   2.914   0.695
  861WAT     H2 3511   1.125   3.044   0.713
  861WAT    EPW 3512   1.078   2.990   0.664
  862WAT      O 3513   0.839   2.341   0.760
  862WAT     H1 3514   0.802   2.317   0.845
  862WAT     H2 3515   0.766   2.333   0.698
  862WAT    EPW 3516   0.824   2.337   0.763
  863WAT      O 3517   2.986   2.712   0.250
  863WAT     H1 3518   2.974   2.742   0.340
  863WAT     H2 3519   2.945   2.780   0.197
  863WAT    EPW 3520   2.979   2.725   0.255
  864WAT      O 3521   1.346   2.952   0.124
  864WAT     H1 3522   1.301   2.878   0.166
  864WAT     H2 3523   1.275   3.011   0.097
  864WAT    EPW 3524   1.330   2.950   0.126
  865WAT      O 3525   0.859   3.905   3.380
  865WAT     H1 3526   0.811   3.987   3.367
  865WAT     H2 3527   0.892   3.911   3.470
  865WAT    EPW 3528   0.857   3.917   3.390
  866WAT      O 3529   3.233   1.162   1.749
  866WAT     H1 3530   3.259   1.115   1.670
  866WAT     H2 3531   3.306   1.219   1.768
  866WAT    EPW 3532   3.246   1.163   1.741
  867WAT      O 3533   1.820   1.558   0.958
  867WAT     H1 3534   1.779   1.553   0.872
  867WAT     H2 3535   1.815   1.651   0.981
  867WAT    EPW 3536   1.814   1.570   0.949
  868WAT      O 3537   1.727   1.671   3.319
  868WAT     H1 3538   1.713   1.580   3.293
  868WAT     H2 3539   1.732   1.668   3.414
  868WAT    EPW 3540   1.725   1.658   3.328
  869WAT      O 3541   1.104   1.838   1.218
  869WAT     H1 3542   1.027   1.893   1.237
  869WAT     H2 3543   1.070   1.770   1.161
  869WAT    EPW 3544   1.089   1.837   1.213
  870WAT      O 3545   3.139   3.362   3.183
  870WAT     H1 3546   3.162   3.269   3.183
  870WAT     H2 3547   3.100   3.377   3.269
  870WAT    EPW 3548   3.137   3.351   3.194
  871WAT      O 3549   3.554   3.965   2.590
  871WAT     H1 3550   3.644   3.972   2.621
  871WAT     H2 3551   3.510   3.912   2.657
  871WAT    EPW 3552   3.560   3.959   2.603
  872WAT      O 3553   2.304   2.858   3.965
  872WAT     H1 3554   2.212   2.834   3.961
  872WAT     H2 3555   2.304   2.953   3.980
  872WAT    EPW 3556   2.292   2.867   3.966
  873WAT      O 3557   2.001   0.606   2.330
  873WAT     H1 3558   1.918   0.613   2.377
  873WAT     H2 3559   1.989   0.531   2.272
  873WAT    EPW 3560   1.988   0.597   2.328
  874WAT      O 3561   1.795   0.275   2.526
  874WAT     H1 3562   1.765   0.246   2.440
  874WAT     H2 3563   1.718   0.266   2.582
  874WAT    EPW 3564   1.781   0.270   2.522
  875WAT      O 3565   3.232   3.161   3.523
  875WAT     H1 3566   3.306   3.111   3.488
  875WAT     H2 3567   3.187   3.099   3.582
  875WAT    EPW 3568   3.236   3.146   3.527
  876WAT      O 3569   2.262   2.785   3.210
  876WAT     H1 3570   2.217   2.701   3.213
  876WAT     H2 3571   2.193   2.850   3.212
  876WAT    EPW 3572   2.247   2.782   3.211
  877WAT      O 3573   1.458   2.260   1.126
  877WAT     H1 3574   1.425   2.171   1.114
  877WAT     H2 3575   1.385   2.317   1.099
  877WAT    EPW 3576   1.444   2.256   1.121
  878WAT      O 3577   2.221   3.232   2.814
  878WAT     H1 3578   2.274   3.156   2.792
  878WAT     H2 3579   2.189   3.214   2.903
  878WAT    EPW 3580   2.224   3.219   2.823
  879WAT      O 3581   1.302   3.476   1.281
  879WAT     H1 3582   1.314   3.420   1.358
  879WAT     H2 3583   1.261   3.419   1.216
  879WAT    EPW 3584   1.298   3.461   1.283
  880WAT      O 3585   3.031   3.214   3.841
  880WAT     H1 3586   2.978   3.171   3.773
  880WAT     H2 3587   3.087   3.274   3.793
  880WAT    EPW 3588   3.031   3.216   3.826
  881WAT      O 3589   3.037   3.226   1.123
  881WAT     H1 3590   3.112   3.246   1.068
  881WAT     H2 3591   2.963   3.227   1.062
  881WAT    EPW 3592   3.037   3.228   1.108
  882WAT      O 3593   1.064   3.668   1.315
  882WAT     H1 3594   1.117   3.588   1.312
  882WAT     H2 3595   1.101   3.718   1.388
  882WAT    EPW 3596   1.076   3.664   1.324
  883WAT      O 3597   3.129   1.449   0.998
  883WAT     H1 3598   3.050   1.430   1.047
  883WAT     H2 3599   3.183   1.501   1.058
  883WAT    EPW 3600   3.126   1.453   1.012
  884WAT      O 3601   2.604   3.812   0.176
  884WAT     H1 3602   2.630   3.735   0.226
  884WAT     H2 3603   2.515   3.831   0.206
  884WAT    EPW 3604   2.595   3.804   0.186
  885WAT      O 3605   1.266   3.162   2.181
  885WAT     H1 3606   1.220   3.187   2.102
  885WAT     H2 3607   1.214   3.090   2.217
  885WAT    EPW 3608   1.253   3.156   2.176
  886WAT      O 3609   2.945   3.324   1.776
  886WAT     H1 3610   2.872   3.384   1.792
  886WAT     H2 3611   2.909   3.259   1.716
  886WAT    EPW 3612   2.930   3.324   1.771
  887WAT      O 3613   1.015   1.135   0.379
  887WAT     H1 3614   1.090   1.146   0.322
  887WAT     H2 3615   1.010   1.040   0.395
  887WAT    EPW 3616   1.024   1.124   0.374
  888WAT      O 3617   3.517   0.358   1.280
  888WAT     H1 3618   3.584   0.425   1.277
  888WAT     H2 3619   3.447   0.396   1.333
  888WAT    EPW 3620   3.516   0.372   1.287
  889WAT      O 3621   2.378   3.973   3.537
  889WAT     H1 3622   2.428   3.903   3.580
  889WAT     H2 3623   2.371   4.042   3.604
  889WAT    EPW 3624   2.383   3.973   3.552
  890WAT      O 3625   3.745   2.477   3.529
  890WAT     H1 3626   3.695   2.515   3.457
  890WAT     H2 3627   3.836   2.502   3.511
  890WAT    EPW 3628   3.751   2.485   3.518
  891WAT      O 3629   2.154   3.627   1.924
  891WAT     H1 3630   2.201   3.709   1.908
  891WAT     H2 3631   2.108   3.642   2.007
  891WAT    EPW 3632   2.154   3.640   1.933
  892WAT      O 3633   3.292   1.206   2.075
  892WAT     H1 3634   3.272   1.297   2.094
  892WAT     H2 3635   3.340   1.208   1.993
  892WAT    EPW 3636   3.296   1.218   2.067
  893WAT      O 3637   0.437   2.781   0.195
  893WAT     H1 3638   0.416   2.719   0.125
  893WAT     H2 3639   0.358   2.782   0.249
  893WAT    EPW 3640   0.424   2.773   0.193
  894WAT      O 3641   2.096   3.267   3.892
  894WAT     H1 3642   2.003   3.260   3.913
  894WAT     H2 3643   2.110   3.200   3.824
  894WAT    EPW 3644   2.086   3.257   3.885
  895WAT      O 3645   3.275   4.059   1.428
  895WAT     H1 3646   3.237   4.147   1.429
  895WAT     H2 3647   3.203   4.002   1.454
  895WAT    EPW 3648   3.261   4.063   1.431
  896WAT      O 3649   3.554   1.987   2.398
  896WAT     H1 3650   3.578   2.077   2.374
  896WAT     H2 3651   3.596   1.933   2.331
  896WAT    EPW 3652   3.563   1.992   2.386
  897WAT      O 3653   1.326   1.106   0.335
  897WAT     H1 3654   1.358   1.121   0.246
  897WAT     H2 3655   1.315   1.012   0.342
  897WAT    EPW 3656   1.329   1.096   0.325
  898WAT      O 3657   0.236   1.871   2.375
  898WAT     H1 3658   0.293   1.939   2.340
  898WAT     H2 3659   0.158   1.873   2.318
  898WAT    EPW 3660   0.233   1.881   2.363
  899WAT      O 3661   0.601   0.468   1.634
  899WAT     H1 3662   0.516   0.487   1.595
  899WAT     H2 3663   0.664   0.519   1.582
  899WAT    EPW 3664   0.598   0.477   1.622
  900WAT      O 3665   3.010   1.021   2.940
  900WAT     H1 3666   3.007   0.956   2.870
  900WAT     H2 3667   2.919   1.045   2.955
  900WAT    EPW 3668   2.998   1.015   2.933
  901WAT      O 3669   2.518   2.630   0.554
  901WAT     H1 3670   2.492   2.618   0.646
  901WAT     H2 3671   2.441   2.602   0.504
  901WAT    EPW 3672   2.504   2.625   0.560
  902WAT      O 3673   2.649   2.346   1.695
  902WAT     H1 3674   2.621   2.268   1.648
  902WAT     H2 3675   2.734   2.323   1.732
  902WAT    EPW 3676   2.656   2.333   1.694
  903WAT      O 3677   3.387   3.413   3.469
  903WAT     H1 3678   3.345   3.332   3.497
  903WAT     H2 3679   3.409   3.398   3.377
  903WAT    EPW 3680   3.385   3.400   3.460
  904WAT      O 3681   3.727   2.349   1.248
  904WAT     H1 3682   3.818   2.373   1.264
  904WAT     H2 3683   3.728   2.253   1.245
  904WAT    EPW 3684   3.739   2.340   1.250
  905WAT      O 3685   3.496   4.007   4.019
  905WAT     H1 3686   3.590   4.007   4.038
  905WAT     H2 3687   3.454   4.005   4.105
  905WAT    EPW 3688   3.503   4.007   4.032
  906WAT      O 3689   0.261   0.348   0.761
  906WAT     H1 3690   0.296   0.434   0.784
  906WAT     H2 3691   0.324   0.313   0.697
  906WAT    EPW 3692   0.274   0.354   0.756
  907WAT      O 3693   1.515   1.527   3.113
  907WAT     H1 3694   1.458   1.586   3.162
  907WAT     H2 3695   1.463   1.503   3.036
  907WAT    EPW 3696   1.501   1.532   3.109
  908WAT      O 3697   1.036   0.859   0.395
  908WAT     H1 3698   0.993   0.804   0.330
  908WAT     H2 3699   0.983   0.847   0.474
  908WAT    EPW 3700   1.024   0.850   0.397
  909WAT      O 3701   1.583   1.415   0.249
  909WAT     H1 3702   1.507   1.474   0.249
  909WAT     H2 3703   1.617   1.421   0.338
  909WAT    EPW 3704   1.577   1.424   0.261
  910WAT      O 3705   2.856   1.079   0.341
  910WAT     H1 3706   2.814   1.043   0.263
  910WAT     H2 3707   2.804   1.157   0.362
  910WAT    EPW 3708   2.843   1.084   0.334
  911WAT      O 3709   2.260   3.865   2.755
  911WAT     H1 3710   2.212   3.842   2.676
  911WAT     H2 3711   2.299   3.782   2.785
  911WAT    EPW 3712   2.259   3.851   2.749
  912WAT      O 3713   2.585   1.660   3.613
  912WAT     H1 3714   2.620   1.573   3.634
  912WAT     H2 3715   2.609   1.673   3.521
  912WAT    EPW 3716   2.593   1.650   3.604
  913WAT      O 3717   2.227   2.391   3.451
  913WAT     H1 3718   2.166   2.317   3.447
  913WAT     H2 3719   2.287   2.368   3.522
  913WAT    EPW 3720   2.227   2.378   3.460
  914WAT      O 3721   1.581   2.921   1.777
  914WAT     H1 3722   1.493   2.937   1.810
  914WAT     H2 3723   1.609   2.841   1.821
  914WAT    EPW 3724   1.573   2.913   1.787
  915WAT      O 3725   3.198   1.521   1.714
  915WAT     H1 3726   3.264   1.495   1.779
  915WAT     H2 3727   3.153   1.439   1.692
  915WAT    EPW 3728   3.201   1.506   1.719
  916WAT      O 3729   2.275   2.004   3.469
  916WAT     H1 3730   2.264   2.030   3.561
  916WAT     H2 3731   2.363   2.034   3.446
  916WAT    EPW 3732   2.285   2.011   3.478
  917WAT      O 3733   0.919   3.745   2.117
  917WAT     H1 3734   1.007   3.746   2.079
  917WAT     H2 3735   0.929   3.696   2.199
  917WAT    EPW 3736   0.932   3.739   2.123
  918WAT      O 3737   2.441   3.142   3.058
  918WAT     H1 3738   2.430   3.157   3.152
  918WAT     H2 3739   2.363   3.091   3.033
  918WAT    EPW 3740   2.429   3.137   3.067
  919WAT      O 3741   3.146   1.313   3.819
  919WAT     H1 3742   3.242   1.314   3.809
  919WAT     H2 3743   3.122   1.221   3.816
  919WAT    EPW 3744   3.156   1.301   3.817
  920WAT      O 3745   2.944   1.671   3.433
  920WAT     H1 3746   2.945   1.741   3.498
  920WAT     H2 3747   2.951   1.590   3.484
  920WAT    EPW 3748   2.945   1.669   3.448
  921WAT      O 3749   1.960   0.811   1.145
  921WAT     H1 3750   1.887   0.823   1.204
  921WAT     H2 3751   1.983   0.900   1.117
  921WAT    EPW 3752   1.954   0.824   1.149
  922WAT      O 3753   0.761   1.251   2.130
  922WAT     H1 3754   0.720   1.305   2.197
  922WAT     H2 3755   0.823   1.196   2.177
  922WAT    EPW 3756   0.764   1.251   2.145
  923WAT      O 3757   1.984   2.365   2.178
  923WAT     H1 3758   1.951   2.408   2.257
  923WAT     H2 3759   2.034   2.433   2.133
  923WAT    EPW 3760   1.986   2.380   2.182
  924WAT      O 3761   1.652   1.373   3.355
  924WAT     H1 3762   1.597   1.390   3.277
  924WAT     H2 3763   1.589   1.359   3.425
  924WAT    EPW 3764   1.636   1.374   3.354
  925WAT      O 3765   2.531   0.009   1.624
  925WAT     H1 3766   2.450  -0.012   1.671
  925WAT     H2 3767   2.600  -0.012   1.686
  925WAT    EPW 3768   2.529   0.003   1.639
  926WAT      O 3769   1.616   0.400   0.910
  926WAT     H1 3770   1.683   0.429   0.972
  926WAT     H2 3771   1.661   0.398   0.825
  926WAT    EPW 3772   1.631   0.403   0.907
  927WAT      O 3773   2.681   2.877   3.132
  927WAT     H1 3774   2.737   2.929   3.074
  927WAT     H2 3775   2.667   2.933   3.209
  927WAT    EPW 3776   2.686   2.891   3.135
  928WAT      O 3777   2.540   0.155   3.556
  928WAT     H1 3778   2.594   0.228   3.589
  928WAT     H2 3779   2.604   0.090   3.527
  928WAT    EPW 3780   2.556   0.156   3.557
  929WAT      O 3781   3.710   2.234   2.211
  929WAT     H1 3782   3.653   2.298   2.169
  929WAT     H2 3783   3.734   2.274   2.295
  929WAT    EPW 3784   3.705   2.248   2.216
  930WAT      O 3785   0.903   0.145   0.300
  930WAT     H1 3786   0.813   0.149   0.268
  930WAT     H2 3787   0.912   0.222   0.357
  930WAT    EPW 3788   0.892   0.156   0.303
  931WAT      O 3789   0.942   0.640   2.898
  931WAT     H1 3790   0.952   0.734   2.910
  931WAT     H2 3791   1.013   0.601   2.949
  931WAT    EPW 3792   0.953   0.647   2.906
  932WAT      O 3793   0.271   1.538   0.320
  932WAT     H1 3794   0.306   1.463   0.272
  932WAT     H2 3795   0.334   1.609   0.303
  932WAT    EPW 3796   0.284   1.537   0.311
  933WAT      O 3797   2.761   3.547   1.866
  933WAT     H1 3798   2.688   3.486   1.875
  933WAT     H2 3799   2.734   3.624   1.917
  933WAT    EPW 3800   2.748   3.549   1.874
  934WAT      O 3801   0.047   0.010   2.346
  934WAT     H1 3802   0.073   0.056   2.426
  934WAT     H2 3803  -0.038   0.047   2.324
  934WAT    EPW 3804   0.039   0.021   2.354
  935WAT      O 3805   1.711   2.988   3.482
  935WAT     H1 3806   1.756   2.934   3.547
  935WAT     H2 3807   1.711   2.935   3.403
  935WAT    EPW 3808   1.717   2.974   3.480
  936WAT      O 3809   0.974   3.807   2.849
  936WAT     H1 3810   1.039   3.860   2.802
  936WAT     H2 3811   0.974   3.844   2.937
  936WAT    EPW 3812   0.983   3.819   2.854
  937WAT      O 3813   0.192   0.540   2.923
  937WAT     H1 3814   0.186   0.448   2.950
  937WAT     H2 3815   0.144   0.588   2.990
  937WAT    EPW 3816   0.185   0.534   2.935
  938WAT      O 3817   2.842   0.304   2.878
  938WAT     H1 3818   2.835   0.220   2.924
  938WAT     H2 3819   2.815   0.284   2.788
  938WAT    EPW 3820   2.837   0.290   2.873
  939WAT      O 3821   1.554   3.839   2.207
  939WAT     H1 3822   1.514   3.898   2.271
  939WAT     H2 3823   1.570   3.894   2.130
  939WAT    EPW 3824   1.551   3.854   2.205
  940WAT      O 3825   2.043   1.632   0.683
  940WAT     H1 3826   1.979   1.579   0.731
  940WAT     H2 3827   2.100   1.667   0.751
  940WAT    EPW 3828   2.042   1.630   0.699
  941WAT      O 3829   0.612   1.465   0.811
  941WAT     H1 3830   0.672   1.402   0.850
  941WAT     H2 3831   0.554   1.491   0.883
  941WAT    EPW 3832   0.612   1.460   0.826
  942WAT      O 3833   1.054   3.199   2.509
  942WAT     H1 3834   0.985   3.151   2.556
  942WAT     H2 3835   1.113   3.130   2.477
  942WAT    EPW 3836   1.053   3.183   2.511
  943WAT      O 3837   0.211   1.367   2.297
  943WAT     H1 3838   0.169   1.439   2.344
  943WAT     H2 3839   0.225   1.400   2.208
  943WAT    EPW 3840   0.208   1.381   2.292
  944WAT      O 3841   0.814   1.738   0.436
  944WAT     H1 3842   0.747   1.691   0.485
  944WAT     H2 3843   0.767   1.778   0.363
  944WAT    EPW 3844   0.799   1.737   0.433
  945WAT      O 3845   2.362   3.713   0.310
  945WAT     H1 3846   2.314   3.654   0.252
  945WAT     H2 3847   2.443   3.665   0.330
  945WAT    EPW 3848   2.367   3.699   0.305
  946WAT      O 3849   1.372   1.273   0.584
  946WAT     H1 3850   1.325   1.356   0.588
  946WAT     H2 3851   1.347   1.235   0.500
  946WAT    EPW 3852   1.363   1.279   0.573
  947WAT      O 3853   1.880   2.852   3.714
  947WAT     H1 3854   1.812   2.785   3.725
  947WAT     H2 3855   1.854   2.922   3.773
  947WAT    EPW 3856   1.867   2.853   3.723
  948WAT      O 3857   3.423   3.569   2.563
  948WAT     H1 3858   3.448   3.629   2.492
  948WAT     H2 3859   3.500   3.514   2.577
  948WAT    EPW 3860   3.436   3.570   2.555
  949WAT      O 3861   1.423   1.174   1.108
  949WAT     H1 3862   1.432   1.244   1.173
  949WAT     H2 3863   1.390   1.099   1.157
  949WAT    EPW 3864   1.420   1.173   1.123
  950WAT      O 3865   3.613   3.599   1.407
  950WAT     H1 3866   3.527   3.569   1.379
  950WAT     H2 3867   3.672   3.568   1.339
  950WAT    EPW 3868   3.609   3.591   1.394
  951WAT      O 3869   1.834   3.407   2.476
  951WAT     H1 3870   1.920   3.388   2.513
  951WAT     H2 3871   1.828   3.503   2.478
  951WAT    EPW 3872   1.844   3.417   2.481
  952WAT      O 3873   0.166   0.055   1.794
  952WAT     H1 3874   0.261   0.051   1.803
  952WAT     H2 3875   0.150   0.057   1.700
  952WAT    EPW 3876   0.176   0.054   1.783
  953WAT      O 3877   0.050   1.351   1.741
  953WAT     H1 3878   0.066   1.445   1.754
  953WAT     H2 3879  -0.025   1.332   1.796
  953WAT    EPW 3880   0.042   1.361   1.750
  954WAT      O 3881   1.853   2.166   3.884
  954WAT     H1 3882   1.867   2.187   3.976
  954WAT     H2 3883   1.907   2.229   3.837
  954WAT    EPW 3884   1.862   2.177   3.890
  955WAT      O 3885   2.507   1.282   2.141
  955WAT     H1 3886   2.582   1.335   2.167
  955WAT     H2 3887   2.449   1.344   2.095
  955WAT    EPW 3888   2.509   1.297   2.138
  956WAT      O 3889   3.512   1.344   2.884
  956WAT     H1 3890   3.549   1.259   2.910
  956WAT     H2 3891   3.430   1.321   2.841
  956WAT    EPW 3892   3.506   1.330   2.882
  957WAT      O 3893   0.143   1.447   4.049
  957WAT     H1 3894   0.200   1.502   4.103
  957WAT     H2 3895   0.195   1.368   4.034
  957WAT    EPW 3896   0.158   1.444   4.054
  958WAT      O 3897   1.847   2.836   1.672
  958WAT     H1 3898   1.752   2.843   1.683
  958WAT     H2 3899   1.867   2.746   1.700
  958WAT    EPW 3900   1.837   2.825   1.678
  959WAT      O 3901   0.747   3.022   3.442
  959WAT     H1 3902   0.753   3.117   3.452
  959WAT     H2 3903   0.805   2.987   3.509
  959WAT    EPW 3904   0.756   3.030   3.452
  960WAT      O 3905   0.683   1.870   2.582
  960WAT     H1 3906   0.638   1.938   2.633
  960WAT     H2 3907   0.686   1.905   2.493
  960WAT    EPW 3908   0.677   1.884   2.577
  961WAT      O 3909   1.845   3.745   3.153
  961WAT     H1 3910   1.885   3.672   3.199
  961WAT     H2 3911   1.894   3.752   3.070
  961WAT    EPW 3912   1.857   3.737   3.148
  962WAT      O 3913   0.240   1.698   3.190
  962WAT     H1 3914   0.231   1.777   3.243
  962WAT     H2 3915   0.255   1.731   3.101
  962WAT    EPW 3916   0.241   1.713   3.185
  963WAT      O 3917   0.197   1.885   2.683
  963WAT     H1 3918   0.291   1.873   2.693
  963WAT     H2 3919   0.182   1.886   2.588
  963WAT    EPW 3920   0.207   1.883   2.671
  964WAT      O 3921   0.118   1.085   1.937
  964WAT     H1 3922   0.119   0.989   1.940
  964WAT     H2 3923   0.040   1.109   1.987
  964WAT    EPW 3924   0.108   1.076   1.944
  965WAT      O 3925   3.604   2.031   0.452
  965WAT     H1 3926   3.564   1.970   0.390
  965WAT     H2 3927   3.690   1.992   0.470
  965WAT    EPW 3928   3.610   2.018   0.446
  966WAT      O 3929   0.869   3.333   2.312
  966WAT     H1 3930   0.818   3.406   2.348
  966WAT     H2 3931   0.927   3.306   2.384
  966WAT    EPW 3932   0.870   3.339   2.326
  967WAT      O 3933   1.458   0.557   2.015
  967WAT     H1 3934   1.427   0.640   1.979
  967WAT     H2 3935   1.552   0.557   1.998
  967WAT    EPW 3936   1.466   0.568   2.008
  968WAT      O 3937   3.703   1.533   3.414
  968WAT     H1 3938   3.697   1.628   3.403
  968WAT     H2 3939   3.646   1.515   3.490
  968WAT    EPW 3940   3.694   1.544   3.423
  969WAT      O 3941   0.026   0.150   1.157
  969WAT     H1 3942   0.089   0.115   1.219
  969WAT     H2 3943  -0.050   0.092   1.163
  969WAT    EPW 3944   0.024   0.138   1.166
  970WAT      O 3945   3.488   1.061   3.298
  970WAT     H1 3946   3.542   1.113   3.358
  970WAT     H2 3947   3.453   1.125   3.235
  970WAT    EPW 3948   3.491   1.076   3.297
  971WAT      O 3949   2.087   3.489   3.623
  971WAT     H1 3950   2.161   3.549   3.633
  971WAT     H2 3951   2.011   3.540   3.651
  971WAT    EPW 3952   2.087   3.503   3.628
  972WAT      O 3953   0.496   1.886   0.668
  972WAT     H1 3954   0.424   1.827   0.687
  972WAT     H2 3955   0.517   1.871   0.576
  972WAT    EPW 3956   0.489   1.876   0.658
  973WAT      O 3957   1.316   2.500   3.634
  973WAT     H1 3958   1.322   2.444   3.711
  973WAT     H2 3959   1.348   2.445   3.562
  973WAT    EPW 3960   1.321   2.485   3.635
  974WAT      O 3961   0.835   3.192   0.037
  974WAT     H1 3962   0.829   3.099   0.013
  974WAT     H2 3963   0.856   3.236  -0.045
  974WAT    EPW 3964   0.837   3.185   0.023
  975WAT      O 3965   0.381   0.886   2.149
  975WAT     H1 3966   0.290   0.867   2.173
  975WAT     H2 3967   0.376   0.970   2.104
  975WAT    EPW 3968   0.368   0.894   2.146
  976WAT      O 3969   2.784   2.791   3.709
  976WAT     H1 3970   2.697   2.830   3.712
  976WAT     H2 3971   2.796   2.765   3.618
  976WAT    EPW 3972   2.774   2.793   3.698
  977WAT      O 3973   0.125   3.128   2.596
  977WAT     H1 3974   0.194   3.069   2.564
  977WAT     H2 3975   0.156   3.215   2.574
  977WAT    EPW 3976   0.138   3.132   2.589
  978WAT      O 3977   1.443   0.129   1.977
  978WAT     H1 3978   1.457   0.209   1.928
  978WAT     H2 3979   1.428   0.158   2.067
  978WAT    EPW 3980   1.443   0.143   1.982
  979WAT      O 3981   1.141   3.935   2.664
  979WAT     H1 3982   1.221   3.886   2.681
  979WAT     H2 3983   1.170   4.018   2.627
  979WAT    EPW 3984   1.155   3.939   2.662
  980WAT      O 3985   1.572   0.579   3.325
  980WAT     H1 3986   1.663   0.552   3.339
  980WAT     H2 3987   1.531   0.570   3.411
  980WAT    EPW 3988   1.579   0.574   3.338
  981WAT      O 3989   2.018   3.255   2.217
  981WAT     H1 3990   2.013   3.210   2.301
  981WAT     H2 3991   2.079   3.202   2.165
  981WAT    EPW 3992   2.026   3.242   2.221
  982WAT      O 3993   3.477   3.187   1.511
  982WAT     H1 3994   3.468   3.107   1.459
  982WAT     H2 3995   3.400   3.239   1.488
  982WAT    EPW 3996   3.466   3.183   1.501
  983WAT      O 3997   0.161   4.094   3.540
  983WAT     H1 3998   0.132   4.067   3.627
  983WAT     H2 3999   0.181   4.187   3.550
  983WAT    EPW 4000   0.160   4.103   3.553
  984WAT      O 4001   0.499   3.897   0.282
  984WAT     H1 4002   0.538   3.966   0.228
  984WAT     H2 4003   0.416   3.934   0.312
  984WAT    EPW 4004   0.493   3.911   0.279
  985WAT      O 4005   0.110   2.057   0.739
  985WAT     H1 4006   0.193   2.079   0.782
  985WAT     H2 4007   0.078   2.140   0.704
  985WAT    EPW 4008   0.117   2.071   0.740
  986WAT      O 4009   3.587   0.811   1.630
  986WAT     H1 4010   3.596   0.900   1.665
  986WAT     H2 4011   3.538   0.822   1.548
  986WAT    EPW 4012   3.582   0.824   1.623
  987WAT      O 4013   0.566   3.436   1.416
  987WAT     H1 4014   0.484   3.392   1.438
  987WAT     H2 4015   0.559   3.453   1.322
  987WAT    EPW 4016   0.554   3.433   1.406
  988WAT      O 4017   0.789   1.777   0.037
  988WAT     H1 4018   0.863   1.833   0.015
  988WAT     H2 4019   0.802   1.697  -0.015
  988WAT    EPW 4020   0.800   1.773   0.028
  989WAT      O 4021   0.196   0.551   1.809
  989WAT     H1 4022   0.267   0.612   1.789
  989WAT     H2 4023   0.241   0.472   1.841
  989WAT    EPW 4024   0.211   0.548   1.810
  990WAT      O 4025   3.517   2.144   1.103
  990WAT     H1 4026   3.572   2.099   1.166
  990WAT     H2 4027   3.506   2.082   1.031
  990WAT    EPW 4028   3.523   2.130   1.102
  991WAT      O 4029   1.112   2.280   3.379
  991WAT     H1 4030   1.051   2.354   3.380
  991WAT     H2 4031   1.073   2.217   3.319
  991WAT    EPW 4032   1.099   2.281   3.371
  992WAT      O 4033   1.031   2.709   0.237
  992WAT     H1 4034   1.051   2.758   0.317
  992WAT     H2 4035   0.935   2.714   0.230
  992WAT    EPW 4036   1.021   2.716   0.247
  993WAT      O 4037   1.284   2.021   1.980
  993WAT     H1 4038   1.348   2.068   2.032
  993WAT     H2 4039   1.335   1.980   1.910
  993WAT    EPW 4040   1.299   2.022   1.977
  994WAT      O 4041   1.005   1.949   1.827
  994WAT     H1 4042   1.091   1.947   1.785
  994WAT     H2 4043   1.023   1.981   1.916
  994WAT    EPW 4044   1.019   1.953   1.833
  995WAT      O 4045   1.170   0.104   3.798
  995WAT     H1 4046   1.097   0.043   3.788
  995WAT     H2 4047   1.204   0.115   3.709
  995WAT    EPW 4048   1.165   0.098   3.785
  996WAT      O 4049   1.047   1.207   3.002
  996WAT     H1 4050   0.997   1.250   2.932
  996WAT     H2 4051   1.097   1.278   3.043
  996WAT    EPW 4052   1.047   1.222   2.998
  997WAT      O 4053   2.317   2.276   0.325
  997WAT     H1 4054   2.382   2.220   0.282
  997WAT     H2 4055   2.350   2.365   0.311
  997WAT    EPW 4056   2.330   2.281   0.318
  998WAT      O 4057   1.850   0.419   2.897
  998WAT     H1 4058   1.838   0.468   2.816
  998WAT     H2 4059   1.853   0.328   2.870
  998WAT    EPW 4060   1.849   0.414   2.883
  999WAT      O 4061   3.474   3.010   3.505
  999WAT     H1 4062   3.493   2.918   3.524
  999WAT     H2 4063   3.554   3.057   3.530
  999WAT    EPW 4064   3.487   3.004   3.511
 1000WAT      O 4065   0.365   2.872   3.578
 1000WAT     H1 4066   0.411   2.809   3.634
 1000WAT     H2 4067   0.409   2.866   3.494
 1000WAT    EPW 4068   0.377   2.863   3.575
 1001WAT      O 4069   1.265   1.750   1.427
 1001WAT     H1 4070   1.213   1.735   1.506
 1001WAT     H2 4071   1.203   1.784   1.363
 1001WAT    EPW 4072   1.250   1.753   1.429
 1002WAT      O 4073   0.954   4.029   3.809
 1002WAT     H1 4074   0.956   4.013   3.904
 1002WAT     H2 4075   1.011   3.962   3.772
 1002WAT    EPW 4076   0.961   4.018   3.817
 1003WAT      O 4077   0.295   1.249   3.908
 1003WAT     H1 4078   0.374   1.277   3.954
 1003WAT     H2 4079   0.324   1.228   3.820
 1003WAT    EPW 4080   0.309   1.250   3.903
 1004WAT      O 4081   0.458   3.282   3.394
 1004WAT     H1 4082   0.550   3.260   3.384
 1004WAT     H2 4083   0.455   3.349   3.462
 1004WAT    EPW 4084   0.470   3.288   3.402
 1005WAT      O 4085   3.672   3.433   0.904
 1005WAT     H1 4086   3.669   3.338   0.915
 1005WAT     H2 4087   3.590   3.465   0.942
 1005WAT    EPW 4088   3.660   3.425   0.910
 1006WAT      O 4089   0.803   0.342   2.265
 1006WAT     H1 4090   0.804   0.277   2.195
 1006WAT     H2 4091   0.791   0.426   2.220
 1006WAT    EPW 4092   0.801   0.345   2.250
 1007WAT      O 4093   1.941   2.020   0.947
 1007WAT     H1 4094   1.934   1.991   0.856
 1007WAT     H2 4095   2.016   2.080   0.948
 1007WAT    EPW 4096   1.950   2.024   0.935
 1008WAT      O 4097   0.205   2.773   2.688
 1008WAT     H1 4098   0.260   2.842   2.652
 1008WAT     H2 4099   0.226   2.696   2.635
 1008WAT    EPW 4100   0.215   2.772   2.676
 1009WAT      O 4101   0.208   3.526   1.612
 1009WAT     H1 4102   0.184   3.599   1.669
 1009WAT     H2 4103   0.125   3.496   1.576
 1009WAT    EPW 4104   0.194   3.532   1.615
 1010WAT      O 4105   1.407   3.251   3.611
 1010WAT     H1 4106   1.416   3.160   3.583
 1010WAT     H2 4107   1.420   3.302   3.531
 1010WAT    EPW 4108   1.410   3.246   3.597
 1011WAT      O 4109   2.853   2.115   0.223
 1011WAT     H1 4110   2.805   2.093   0.143
 1011WAT     H2 4111   2.786   2.150   0.282
 1011WAT    EPW 4112   2.838   2.117   0.220
 1012WAT      O 4113   0.998   2.086   0.616
 1012WAT     H1 4114   1.092   2.097   0.604
 1012WAT     H2 4115   0.962   2.175   0.611
 1012WAT    EPW 4116   1.006   2.099   0.614
 1013WAT      O 4117   0.156   2.341   1.569
 1013WAT     H1 4118   0.088   2.276   1.550
 1013WAT     H2 4119   0.236   2.290   1.576
 1013WAT    EPW 4120   0.157   2.325   1.567
 1014WAT      O 4121   2.876   0.580   2.965
 1014WAT     H1 4122   2.840   0.522   2.898
 1014WAT     H2 4123   2.836   0.551   3.047
 1014WAT    EPW 4124   2.866   0.568   2.967
 1015WAT      O 4125   0.963   3.081   1.061
 1015WAT     H1 4126   0.894   3.070   1.126
 1015WAT     H2 4127   1.038   3.033   1.097
 1015WAT    EPW 4128   0.964   3.074   1.074
 1016WAT      O 4129   2.337   0.453   2.462
 1016WAT     H1 4130   2.330   0.361   2.486
 1016WAT     H2 4131   2.381   0.453   2.377
 1016WAT    EPW 4132   2.342   0.441   2.454
 1017WAT      O 4133   2.457   0.259   1.972
 1017WAT     H1 4134   2.502   0.270   1.888
 1017WAT     H2 4135   2.528   0.250   2.036
 1017WAT    EPW 4136   2.472   0.260   1.970
 1018WAT      O 4137   2.742   1.748   1.620
 1018WAT     H1 4138   2.666   1.699   1.651
 1018WAT     H2 4139   2.788   1.773   1.699
 1018WAT    EPW 4140   2.738   1.744   1.634
 1019WAT      O 4141   1.325   1.577   3.668
 1019WAT     H1 4142   1.301   1.665   3.639
 1019WAT     H2 4143   1.241   1.535   3.688
 1019WAT    EPW 4144   1.311   1.583   3.666
 1020WAT      O 4145   2.621   3.034   3.372
 1020WAT     H1 4146   2.527   3.014   3.370
 1020WAT     H2 4147   2.636   3.066   3.461
 1020WAT    EPW 4148   2.610   3.036   3.384
 1021WAT      O 4149   1.445   2.719   0.319
 1021WAT     H1 4150   1.393   2.644   0.291
 1021WAT     H2 4151   1.535   2.687   0.324
 1021WAT    EPW 4152   1.450   2.705   0.316
 1022WAT      O 4153   2.626   0.587   3.355
 1022WAT     H1 4154   2.689   0.547   3.295
 1022WAT     H2 4155   2.625   0.529   3.431
 1022WAT    EPW 4156   2.634   0.574   3.357
 1023WAT      O 4157   3.651   2.886   0.113
 1023WAT     H1 4158   3.609   2.807   0.077
 1023WAT     H2 4159   3.702   2.921   0.041
 1023WAT    EPW 4160   3.652   2.880   0.099
 1024WAT      O 4161   3.469   2.913   1.847
 1024WAT     H1 4162   3.495   2.962   1.925
 1024WAT     H2 4163   3.549   2.868   1.818
 1024WAT    EPW 4164   3.483   2.914   1.853
 1025WAT      O 4165   0.391   0.168   2.381
 1025WAT     H1 4166   0.406   0.081   2.345
 1025WAT     H2 4167   0.413   0.228   2.310
 1025WAT    EPW 4168   0.396   0.165   2.367
 1026WAT      O 4169   1.279   0.372   1.012
 1026WAT     H1 4170   1.219   0.306   1.048
 1026WAT     H2 4171   1.222   0.442   0.982
 1026WAT    EPW 4172   1.263   0.372   1.013
 1027WAT      O 4173   3.008   0.298   3.904
 1027WAT     H1 4174   3.064   0.374   3.920
 1027WAT     H2 4175   2.951   0.293   3.981
 1027WAT    EPW 4176   3.008   0.307   3.917
 1028WAT      O 4177   0.730   3.258   0.889
 1028WAT     H1 4178   0.765   3.244   0.977
 1028WAT     H2 4179   0.772   3.339   0.860
 1028WAT    EPW 4180   0.740   3.266   0.897
 1029WAT      O 4181   2.338   0.247   0.934
 1029WAT     H1 4182   2.312   0.165   0.891
 1029WAT     H2 4183   2.432   0.237   0.948
 1029WAT    EPW 4184   2.347   0.235   0.930
 1030WAT      O 4185   0.495   2.857   1.598
 1030WAT     H1 4186   0.460   2.770   1.616
 1030WAT     H2 4187   0.421   2.907   1.565
 1030WAT    EPW 4188   0.481   2.852   1.596
 1031WAT      O 4189   0.631   0.296   1.907
 1031WAT     H1 4190   0.578   0.255   1.838
 1031WAT     H2 4191   0.568   0.339   1.964
 1031WAT    EPW 4192   0.616   0.296   1.905
 1032WAT      O 4193   0.064   2.837   0.824
 1032WAT     H1 4194   0.118   2.913   0.805
 1032WAT     H2 4195  -0.011   2.844   0.765
 1032WAT    EPW 4196   0.061   2.848   0.814
 1033WAT      O 4197   2.182   0.087   2.128
 1033WAT     H1 4198   2.094   0.057   2.106
 1033WAT     H2 4199   2.172   0.134   2.211
 1033WAT    EPW 4200   2.169   0.089   2.136
 1034WAT      O 4201   0.013   0.820   1.902
 1034WAT     H1 4202   0.067   0.814   1.823
 1034WAT     H2 4203  -0.076   0.813   1.870
 1034WAT    EPW 4204   0.009   0.818   1.888
 1035WAT      O 4205   1.507   0.997   0.847
 1035WAT     H1 4206   1.495   1.089   0.868
 1035WAT     H2 4207   1.589   0.995   0.797
 1035WAT    EPW 4208   1.517   1.009   0.843
 1036WAT      O 4209   2.881   0.752   2.183
 1036WAT     H1 4210   2.966   0.714   2.159
 1036WAT     H2 4211   2.860   0.810   2.110
 1036WAT    EPW 4212   2.890   0.755   2.170
 1037WAT      O 4213   3.369   2.657   3.324
 1037WAT     H1 4214   3.394   2.675   3.415
 1037WAT     H2 4215   3.422   2.582   3.299
 1037WAT    EPW 4216   3.380   2.650   3.333
 1038WAT      O 4217   1.131   2.219   1.849
 1038WAT     H1 4218   1.185   2.149   1.888
 1038WAT     H2 4219   1.182   2.299   1.864
 1038WAT    EPW 4220   1.145   2.220   1.856
 1039WAT      O 4221   0.434   2.083   3.501
 1039WAT     H1 4222   0.505   2.126   3.454
 1039WAT     H2 4223   0.359   2.087   3.441
 1039WAT    EPW 4224   0.433   2.089   3.487
 1040WAT      O 4225   3.665   1.386   2.268
 1040WAT     H1 4226   3.750   1.397   2.225
 1040WAT     H2 4227   3.622   1.315   2.220
 1040WAT    EPW 4228   3.670   1.378   2.256
 1041WAT      O 4229   0.486   3.754   2.185
 1041WAT     H1 4230   0.397   3.720   2.195
 1041WAT     H2 4231   0.502   3.751   2.091
 1041WAT    EPW 4232   0.476   3.749   2.174
 1042WAT      O 4233   0.681   1.019   3.898
 1042WAT     H1 4234   0.695   0.925   3.913
 1042WAT     H2 4235   0.688   1.059   3.984
 1042WAT    EPW 4236   0.684   1.012   3.911
 1043WAT      O 4237   1.287   0.461   3.444
 1043WAT     H1 4238   1.335   0.505   3.514
 1043WAT     H2 4239   1.232   0.529   3.405
 1043WAT    EPW 4240   1.286   0.476   3.448
 1044WAT      O 4241   2.838   0.832   2.695
 1044WAT     H1 4242   2.773   0.879   2.747
 1044WAT     H2 4243   2.829   0.741   2.721
 1044WAT    EPW 4244   2.829   0.826   2.705
 1045WAT      O 4245   1.125   3.516   1.868
 1045WAT     H1 4246   1.152   3.555   1.785
 1045WAT     H2 4247   1.029   3.510   1.862
 1045WAT    EPW 4248   1.116   3.521   1.856
 1046WAT      O 4249   1.081   0.120   0.874
 1046WAT     H1 4250   1.019   0.177   0.919
 1046WAT     H2 4251   1.043   0.108   0.787
 1046WAT    EPW 4252   1.067   0.126   0.868
 1047WAT      O 4253   1.407   0.434   1.429
 1047WAT     H1 4254   1.347   0.496   1.472
 1047WAT     H2 4255   1.492   0.452   1.471
 1047WAT    EPW 4256   1.410   0.445   1.440
 1048WAT      O 4257   0.142   2.503   3.007
 1048WAT     H1 4258   0.113   2.442   3.075
 1048WAT     H2 4259   0.231   2.475   2.986
 1048WAT    EPW 4260   0.150   2.491   3.013
 1049WAT      O 4261   3.345   1.629   0.358
 1049WAT     H1 4262   3.373   1.538   0.344
 1049WAT     H2 4263   3.250   1.623   0.365
 1049WAT    EPW 4264   3.336   1.616   0.357
 1050WAT      O 4265   1.290   0.682   2.325
 1050WAT     H1 4266   1.316   0.687   2.417
 1050WAT     H2 4267   1.195   0.687   2.327
 1050WAT    EPW 4268   1.281   0.683   2.338
 1051WAT      O 4269   2.034   1.555   2.322
 1051WAT     H1 4270   1.966   1.622   2.314
 1051WAT     H2 4271   2.019   1.497   2.248
 1051WAT    EPW 4272   2.023   1.556   2.311
 1052WAT      O 4273   1.616   0.503   1.582
 1052WAT     H1 4274   1.656   0.578   1.626
 1052WAT     H2 4275   1.673   0.430   1.604
 1052WAT    EPW 4276   1.629   0.503   1.591
 1053WAT      O 4277   1.930   0.199   3.983
 1053WAT     H1 4278   1.914   0.230   3.894
 1053WAT     H2 4279   1.997   0.258   4.017
 1053WAT    EPW 4280   1.937   0.211   3.976
 1054WAT      O 4281   1.332   0.969   0.607
 1054WAT     H1 4282   1.381   0.946   0.687
 1054WAT     H2 4283   1.318   1.063   0.615
 1054WAT    EPW 4284   1.337   0.978   0.619
 1055WAT      O 4285   2.693   2.965   1.358
 1055WAT     H1 4286   2.748   3.037   1.386
 1055WAT     H2 4287   2.743   2.923   1.288
 1055WAT    EPW 4288   2.707   2.969   1.352
 1056WAT      O 4289   2.384   0.896   2.192
 1056WAT     H1 4290   2.332   0.832   2.240
 1056WAT     H2 4291   2.391   0.971   2.252
 1056WAT    EPW 4292   2.378   0.898   2.206
 1057WAT      O 4293   1.584   3.603   1.565
 1057WAT     H1 4294   1.680   3.607   1.566
 1057WAT     H2 4295   1.557   3.695   1.560
 1057WAT    EPW 4296   1.593   3.616   1.565
 1058WAT      O 4297   0.760   3.872   1.802
 1058WAT     H1 4298   0.831   3.829   1.755
 1058WAT     H2 4299   0.709   3.800   1.840
 1058WAT    EPW 4300   0.763   3.857   1.800
 1059WAT      O 4301   2.689   1.602   0.558
 1059WAT     H1 4302   2.607   1.588   0.510
 1059WAT     H2 4303   2.741   1.658   0.501
 1059WAT    EPW 4304   2.685   1.608   0.544
 1060WAT      O 4305   2.313   0.718   1.588
 1060WAT     H1 4306   2.257   0.739   1.513
 1060WAT     H2 4307   2.262   0.745   1.664
 1060WAT    EPW 4308   2.299   0.724   1.588
 1061WAT      O 4309   1.620   2.693   0.770
 1061WAT     H1 4310   1.540   2.734   0.803
 1061WAT     H2 4311   1.627   2.611   0.820
 1061WAT    EPW 4312   1.611   2.688   0.781
 1062WAT      O 4313   2.057   0.464   3.984
 1062WAT     H1 4314   1.976   0.489   3.940
 1062WAT     H2 4315   2.127   0.503   3.931
 1062WAT    EPW 4316   2.056   0.472   3.971
 1063WAT      O 4317   2.098   2.744   0.176
 1063WAT     H1 4318   2.114   2.815   0.237
 1063WAT     H2 4319   2.040   2.684   0.223
 1063WAT    EPW 4320   2.092   2.745   0.190
 1064WAT      O 4321   2.431   2.568   3.914
 1064WAT     H1 4322   2.388   2.637   3.965
 1064WAT     H2 4323   2.450   2.500   3.978
 1064WAT    EPW 4324   2.428   2.568   3.929
 1065WAT      O 4325   3.050   0.500   1.870
 1065WAT     H1 4326   2.959   0.526   1.886
 1065WAT     H2 4327   3.096   0.584   1.857
 1065WAT    EPW 4328   3.045   0.515   1.870
 1066WAT      O 4329   0.188   1.410   1.990
 1066WAT     H1 4330   0.136   1.374   1.918
 1066WAT     H2 4331   0.145   1.493   2.011
 1066WAT    EPW 4332   0.175   1.416   1.983
 1067WAT      O 4333   3.514   2.582   1.974
 1067WAT     H1 4334   3.603   2.600   2.005
 1067WAT     H2 4335   3.491   2.499   2.016
 1067WAT    EPW 4336   3.523   2.573   1.984
 1068WAT      O 4337   1.982   1.791   3.289
 1068WAT     H1 4338   1.899   1.749   3.268
 1068WAT     H2 4339   2.034   1.784   3.208
 1068WAT    EPW 4340   1.978   1.784   3.275
 1069WAT      O 4341   3.519   2.355   1.525
 1069WAT     H1 4342   3.439   2.365   1.473
 1069WAT     H2 4343   3.549   2.445   1.539
 1069WAT    EPW 4344   3.513   2.368   1.520
 1070WAT      O 4345   3.166   0.516   0.236
 1070WAT     H1 4346   3.156   0.424   0.261
 1070WAT     H2 4347   3.079   0.553   0.246
 1070WAT    EPW 4348   3.153   0.508   0.241
 1071WAT      O 4349   3.493   0.931   1.396
 1071WAT     H1 4350   3.549   1.007   1.413
 1071WAT     H2 4351   3.417   0.967   1.351
 1071WAT    EPW 4352   3.491   0.946   1.392
 1072WAT      O 4353   0.497   1.143   3.692
 1072WAT     H1 4354   0.476   1.060   3.735
 1072WAT     H2 4355   0.578   1.171   3.734
 1072WAT    EPW 4356   0.505   1.136   3.704
 1073WAT      O 4357   2.908   3.720   3.896
 1073WAT     H1 4358   2.902   3.627   3.916
 1073WAT     H2 4359   2.818   3.752   3.906
 1073WAT    EPW 4360   2.895   3.712   3.900
 1074WAT      O 4361   2.067   2.989   3.290
 1074WAT     H1 4362   1.981   2.947   3.298
 1074WAT     H2 4363   2.049   3.072   3.246
 1074WAT    EPW 4364   2.053   2.994   3.285
 1075WAT      O 4365   3.633   1.802   1.827
 1075WAT     H1 4366   3.575   1.799   1.750
 1075WAT     H2 4367   3.603   1.878   1.877
 1075WAT    EPW 4368   3.621   1.812   1.823
 1076WAT      O 4369   3.072   2.797   3.368
 1076WAT     H1 4370   3.070   2.870   3.306
 1076WAT     H2 4371   3.155   2.753   3.351
 1076WAT    EPW 4372   3.083   2.801   3.358
 1077WAT      O 4373   2.793   3.174   1.580
 1077WAT     H1 4374   2.769   3.257   1.539
 1077WAT     H2 4375   2.867   3.142   1.529
 1077WAT    EPW 4376   2.799   3.181   1.568
 1078WAT      O 4377   1.654   3.702   3.460
 1078WAT     H1 4378   1.591   3.774   3.460
 1078WAT     H2 4379   1.600   3.623   3.458
 1078WAT    EPW 4380   1.639   3.701   3.459
 1079WAT      O 4381   3.471   3.076   2.074
 1079WAT     H1 4382   3.455   3.030   2.156
 1079WAT     H2 4383   3.561   3.107   2.079
 1079WAT    EPW 4384   3.481   3.074   2.085
 1080WAT      O 4385   3.582   0.602   2.736
 1080WAT     H1 4386   3.678   0.600   2.738
 1080WAT     H2 4387   3.557   0.651   2.814
 1080WAT    EPW 4388   3.591   0.608   2.747
 1081WAT      O 4389   1.243   2.517   1.757
 1081WAT     H1 4390   1.310   2.458   1.723
 1081WAT     H2 4391   1.289   2.598   1.776
 1081WAT    EPW 4392   1.258   2.520   1.755
 1082WAT      O 4393   3.337   0.780   3.232
 1082WAT     H1 4394   3.264   0.721   3.216
 1082WAT     H2 4395   3.319   0.819   3.318
 1082WAT    EPW 4396   3.325   0.778   3.241
 1083WAT      O 4397   1.058   2.825   3.984
 1083WAT     H1 4398   1.055   2.802   3.891
 1083WAT     H2 4399   1.111   2.904   3.988
 1083WAT    EPW 4400   1.065   2.832   3.972
 1084WAT      O 4401   0.222   2.967   1.537
 1084WAT     H1 4402   0.168   2.974   1.616
 1084WAT     H2 4403   0.192   2.887   1.495
 1084WAT    EPW 4404   0.211   2.957   1.542
 1085WAT      O 4405   2.356   0.013   0.254
 1085WAT     H1 4406   2.262   0.023   0.238
 1085WAT     H2 4407   2.369   0.049   0.341
 1085WAT    EPW 4408   2.345   0.019   0.263
 1086WAT      O 4409   3.734   0.926   0.564
 1086WAT     H1 4410   3.770   0.842   0.593
 1086WAT     H2 4411   3.751   0.928   0.470
 1086WAT    EPW 4412   3.741   0.915   0.556
 1087WAT      O 4413   0.239   3.264   0.323
 1087WAT     H1 4414   0.165   3.249   0.265
 1087WAT     H2 4415   0.293   3.328   0.277
 1087WAT    EPW 4416   0.236   3.270   0.309
 1088WAT      O 4417   0.278   3.311   1.249
 1088WAT     H1 4418   0.266   3.327   1.343
 1088WAT     H2 4419   0.326   3.388   1.218
 1088WAT    EPW 4420   0.283   3.323   1.258
 1089WAT      O 4421   1.912   0.022   2.102
 1089WAT     H1 4422   1.873   0.097   2.148
 1089WAT     H2 4423   1.840  -0.041   2.096
 1089WAT    EPW 4424   1.897   0.024   2.107
 1090WAT      O 4425   1.911   0.916   2.359
 1090WAT     H1 4426   1.994   0.894   2.402
 1090WAT     H2 4427   1.925   0.892   2.267
 1090WAT    EPW 4428   1.924   0.910   2.353
 1091WAT      O 4429   1.198   0.956   1.515
 1091WAT     H1 4430   1.107   0.963   1.486
 1091WAT     H2 4431   1.235   1.043   1.500
 1091WAT    EPW 4432   1.191   0.968   1.509
 1092WAT      O 4433   0.158   1.063   0.090
 1092WAT     H1 4434   0.169   1.054  -0.005
 1092WAT     H2 4435   0.231   1.014   0.127
 1092WAT    EPW 4436   0.169   1.056   0.082
 1093WAT      O 4437   0.150   2.199   2.015
 1093WAT     H1 4438   0.215   2.143   2.056
 1093WAT     H2 4439   0.086   2.216   2.084
 1093WAT    EPW 4440   0.150   2.194   2.030
 1094WAT      O 4441   2.370   0.607   1.198
 1094WAT     H1 4442   2.303   0.539   1.194
 1094WAT     H2 4443   2.396   0.620   1.107
 1094WAT    EPW 4444   2.365   0.600   1.185
 1095WAT      O 4445   3.086   1.272   0.521
 1095WAT     H1 4446   3.120   1.328   0.591
 1095WAT     H2 4447   3.114   1.184   0.546
 1095WAT    EPW 4448   3.094   1.268   0.534
 1096WAT      O 4449   2.330   0.985   1.065
 1096WAT     H1 4450   2.258   0.975   1.127
 1096WAT     H2 4451   2.309   0.924   0.995
 1096WAT    EPW 4452   2.318   0.976   1.064
 1097WAT      O 4453   2.969   1.908   1.163
 1097WAT     H1 4454   3.014   1.991   1.151
 1097WAT     H2 4455   2.955   1.875   1.075
 1097WAT    EPW 4456   2.973   1.914   1.150
 1098WAT      O 4457   2.003   1.130   0.611
 1098WAT     H1 4458   1.936   1.095   0.670
 1098WAT     H2 4459   2.085   1.119   0.659
 1098WAT    EPW 4460   2.005   1.124   0.625
 1099WAT      O 4461   1.857   3.410   1.369
 1099WAT     H1 4462   1.866   3.472   1.441
 1099WAT     H2 4463   1.834   3.327   1.412
 1099WAT    EPW 4464   1.855   3.407   1.384
 1100WAT      O 4465   3.299   1.788   3.419
 1100WAT     H1 4466   3.278   1.755   3.332
 1100WAT     H2 4467   3.221   1.837   3.446
 1100WAT    EPW 4468   3.286   1.790   3.411
 1101WAT      O 4469   3.356   0.895   0.012
 1101WAT     H1 4470   3.364   0.809  -0.029
 1101WAT     H2 4471   3.313   0.877   0.096
 1101WAT    EPW 4472   3.351   0.881   0.018
 1102WAT      O 4473   1.370   2.763   0.889
 1102WAT     H1 4474   1.371   2.859   0.882
 1102WAT     H2 4475   1.347   2.733   0.801
 1102WAT    EPW 4476   1.367   2.772   0.877
 1103WAT      O 4477   3.666   2.925   1.521
 1103WAT     H1 4478   3.585   2.914   1.472
 1103WAT     H2 4479   3.729   2.958   1.457
 1103WAT    EPW 4480   3.664   2.928   1.506
 1104WAT      O 4481   1.282   2.325   2.169
 1104WAT     H1 4482   1.276   2.250   2.228
 1104WAT     H2 4483   1.354   2.303   2.109
 1104WAT    EPW 4484   1.291   2.313   2.169
 1105WAT      O 4485   2.993   2.258   0.500
 1105WAT     H1 4486   2.923   2.199   0.473
 1105WAT     H2 4487   3.073   2.217   0.468
 1105WAT    EPW 4488   2.994   2.245   0.492
 1106WAT      O 4489   3.066   1.296   1.522
 1106WAT     H1 4490   2.984   1.299   1.572
 1106WAT     H2 4491   3.080   1.203   1.503
 1106WAT    EPW 4492   3.057   1.284   1.526
 1107WAT      O 4493   0.859   0.722   3.216
 1107WAT     H1 4494   0.817   0.665   3.152
 1107WAT     H2 4495   0.801   0.798   3.222
 1107WAT    EPW 4496   0.846   0.724   3.208
 1108WAT      O 4497   2.562   0.868   1.202
 1108WAT     H1 4498   2.482   0.903   1.162
 1108WAT     H2 4499   2.548   0.878   1.296
 1108WAT    EPW 4500   2.549   0.874   1.209
 1109WAT      O 4501   0.015   2.537   4.038
 1109WAT     H1 4502  -0.058   2.574   3.989
 1109WAT     H2 4503   0.016   2.585   4.120
 1109WAT    EPW 4504   0.006   2.548   4.042
 1110WAT      O 4505   0.768   0.434   2.980
 1110WAT     H1 4506   0.810   0.517   2.959
 1110WAT     H2 4507   0.674   0.453   2.972
 1110WAT    EPW 4508   0.761   0.447   2.976
 1111WAT      O 4509   2.132   1.155   2.172
 1111WAT     H1 4510   2.209   1.135   2.226
 1111WAT     H2 4511   2.101   1.069   2.143
 1111WAT    EPW 4512   2.138   1.141   2.175
 1112WAT      O 4513   0.938   4.028   1.218
 1112WAT     H1 4514   0.996   3.966   1.172
 1112WAT     H2 4515   0.978   4.038   1.304
 1112WAT    EPW 4516   0.951   4.021   1.223
 1113WAT      O 4517   2.657   2.733   3.979
 1113WAT     H1 4518   2.710   2.700   3.906
 1113WAT     H2 4519   2.584   2.671   3.985
 1113WAT    EPW 4520   2.654   2.720   3.970
 1114WAT      O 4521   0.332   1.193   3.150
 1114WAT     H1 4522   0.324   1.276   3.101
 1114WAT     H2 4523   0.414   1.201   3.198
 1114WAT    EPW 4524   0.342   1.205   3.150
 1115WAT      O 4525   0.004   3.855   2.274
 1115WAT     H1 4526   0.094   3.823   2.283
 1115WAT     H2 4527   0.009   3.946   2.301
 1115WAT    EPW 4528   0.017   3.863   2.279
 1116WAT      O 4529   3.587   1.838   3.436
 1116WAT     H1 4530   3.630   1.853   3.352
 1116WAT     H2 4531   3.493   1.836   3.415
 1116WAT    EPW 4532   3.580   1.840   3.422
 1117WAT      O 4533   3.469   0.467   3.079
 1117WAT     H1 4534   3.426   0.511   3.005
 1117WAT     H2 4535   3.400   0.412   3.117
 1117WAT    EPW 4536   3.454   0.466   3.074
 1118WAT      O 4537   0.392   0.241   2.923
 1118WAT     H1 4538   0.384   0.184   3.000
 1118WAT     H2 4539   0.433   0.320   2.957
 1118WAT    EPW 4540   0.396   0.244   2.938
 1119WAT      O 4541   0.524   2.937   3.080
 1119WAT     H1 4542   0.498   2.845   3.084
 1119WAT     H2 4543   0.511   2.961   2.988
 1119WAT    EPW 4544   0.519   2.928   3.068
 1120WAT      O 4545   0.403   4.011   3.665
 1120WAT     H1 4546   0.393   3.949   3.736
 1120WAT     H2 4547   0.319   4.007   3.618
 1120WAT    EPW 4548   0.390   4.002   3.668
 1121WAT      O 4549   3.138   0.337   2.903
 1121WAT     H1 4550   3.043   0.339   2.896
 1121WAT     H2 4551   3.158   0.253   2.944
 1121WAT    EPW 4552   3.128   0.326   2.907
 1122WAT      O 4553   3.048   0.915   0.875
 1122WAT     H1 4554   3.018   1.005   0.888
 1122WAT     H2 4555   3.141   0.917   0.895
 1122WAT    EPW 4556   3.056   0.927   0.879
 1123WAT      O 4557   0.129   1.609   2.440
 1123WAT     H1 4558   0.152   1.574   2.526
 1123WAT     H2 4559   0.177   1.691   2.433
 1123WAT    EPW 4560   0.138   1.615   2.451
 1124WAT      O 4561   2.164   3.909   3.017
 1124WAT     H1 4562   2.172   3.831   3.072
 1124WAT     H2 4563   2.185   3.880   2.929
 1124WAT    EPW 4564   2.168   3.895   3.013
 1125WAT      O 4565   1.909   0.276   1.860
 1125WAT     H1 4566   2.000   0.251   1.872
 1125WAT     H2 4567   1.913   0.366   1.829
 1125WAT    EPW 4568   1.921   0.285   1.858
 1126WAT      O 4569   1.168   3.361   3.378
 1126WAT     H1 4570   1.166   3.279   3.328
 1126WAT     H2 4571   1.261   3.385   3.379
 1126WAT    EPW 4572   1.180   3.354   3.372
 1127WAT      O 4573   1.477   3.783   0.731
 1127WAT     H1 4574   1.395   3.781   0.780
 1127WAT     H2 4575   1.518   3.866   0.756
 1127WAT    EPW 4576   1.472   3.794   0.741
 1128WAT      O 4577   2.317   2.862   0.569
 1128WAT     H1 4578   2.361   2.778   0.586
 1128WAT     H2 4579   2.352   2.921   0.637
 1128WAT    EPW 4580   2.328   2.859   0.580
 1129WAT      O 4581   0.285   1.832   1.921
 1129WAT     H1 4582   0.348   1.818   1.850
 1129WAT     H2 4583   0.236   1.910   1.895
 1129WAT    EPW 4584   0.287   1.840   1.909
 1130WAT      O 4585   2.840   2.507   1.424
 1130WAT     H1 4586   2.856   2.429   1.478
 1130WAT     H2 4587   2.804   2.572   1.485
 1130WAT    EPW 4588   2.838   2.505   1.439
 1131WAT      O 4589   2.571   2.125   1.487
 1131WAT     H1 4590   2.510   2.055   1.513
 1131WAT     H2 4591   2.656   2.082   1.479
 1131WAT    EPW 4592   2.574   2.110   1.490
 1132WAT      O 4593   0.507   1.345   0.378
 1132WAT     H1 4594   0.489   1.304   0.463
 1132WAT     H2 4595   0.601   1.336   0.366
 1132WAT    EPW 4596   0.517   1.338   0.388
 1133WAT      O 4597   1.840   3.845   1.076
 1133WAT     H1 4598   1.863   3.923   1.126
 1133WAT     H2 4599   1.923   3.813   1.042
 1133WAT    EPW 4600   1.854   3.851   1.078
 1134WAT      O 4601   3.247   0.813   0.288
 1134WAT     H1 4602   3.269   0.889   0.342
 1134WAT     H2 4603   3.166   0.779   0.326
 1134WAT    EPW 4604   3.239   0.818   0.300
 1135WAT      O 4605   2.700   1.280   3.948
 1135WAT     H1 4606   2.793   1.270   3.968
 1135WAT     H2 4607   2.674   1.195   3.912
 1135WAT    EPW 4608   2.709   1.267   3.946
 1136WAT      O 4609   3.170   3.814   3.940
 1136WAT     H1 4610   3.183   3.863   3.859
 1136WAT     H2 4611   3.076   3.794   3.942
 1136WAT    EPW 4612   3.159   3.818   3.930
 1137WAT      O 4613   3.004   2.592   2.469
 1137WAT     H1 4614   2.983   2.677   2.508
 1137WAT     H2 4615   2.938   2.580   2.401
 1137WAT    EPW 4616   2.992   2.602   2.465
 1138WAT      O 4617   1.847   3.890   1.932
 1138WAT     H1 4618   1.906   3.878   1.857
 1138WAT     H2 4619   1.795   3.967   1.909
 1138WAT    EPW 4620   1.848   3.899   1.919
 1139WAT      O 4621   1.244   3.688   3.679
 1139WAT     H1 4622   1.194   3.670   3.758
 1139WAT     H2 4623   1.193   3.649   3.608
 1139WAT    EPW 4624   1.231   3.680   3.680
 1140WAT      O 4625   0.463   3.020   2.816
 1140WAT     H1 4626   0.376   3.045   2.783
 1140WAT     H2 4627   0.524   3.054   2.751
 1140WAT    EPW 4628   0.459   3.028   2.803
 1141WAT      O 4629   1.447   3.221   1.679
 1141WAT     H1 4630   1.423   3.286   1.744
 1141WAT     H2 4631   1.525   3.178   1.714
 1141WAT    EPW 4632   1.454   3.224   1.692
 1142WAT      O 4633   1.516   1.996   3.893
 1142WAT     H1 4634   1.480   1.908   3.899
 1142WAT     H2 4635   1.572   2.004   3.971
 1142WAT    EPW 4636   1.519   1.985   3.904
 1143WAT      O 4637   2.055   1.854   1.280
 1143WAT     H1 4638   2.120   1.912   1.239
 1143WAT     H2 4639   1.995   1.913   1.325
 1143WAT    EPW 4640   2.056   1.869   1.280
 1144WAT      O 4641   1.149   0.445   3.004
 1144WAT     H1 4642   1.212   0.378   2.975
 1144WAT     H2 4643   1.092   0.399   3.066
 1144WAT    EPW 4644   1.150   0.430   3.008
 1145WAT      O 4645   1.120   2.382   0.537
 1145WAT     H1 4646   1.165   2.404   0.455
 1145WAT     H2 4647   1.178   2.319   0.580
 1145WAT    EPW 4648   1.133   2.377   0.532
 1146WAT      O 4649   2.734   3.920   2.258
 1146WAT     H1 4650   2.657   3.929   2.203
 1146WAT     H2 4651   2.700   3.909   2.347
 1146WAT    EPW 4652   2.720   3.919   2.263
 1147WAT      O 4653   2.693   0.426   3.638
 1147WAT     H1 4654   2.653   0.468   3.714
 1147WAT     H2 4655   2.771   0.477   3.620
 1147WAT    EPW 4656   2.698   0.438   3.646
 1148WAT      O 4657   1.376   2.197   2.991
 1148WAT     H1 4658   1.405   2.107   2.980
 1148WAT     H2 4659   1.329   2.217   2.910
 1148WAT    EPW 4660   1.374   2.188   2.979
 1149WAT      O 4661   0.546   1.589   3.538
 1149WAT     H1 4662   0.460   1.566   3.503
 1149WAT     H2 4663   0.556   1.682   3.516
 1149WAT    EPW 4664   0.536   1.598   3.530
 1150WAT      O 4665   3.542   3.638   3.629
 1150WAT     H1 4666   3.519   3.725   3.662
 1150WAT     H2 4667   3.544   3.648   3.534
 1150WAT    EPW 4668   3.539   3.651   3.621
 1151WAT      O 4669   0.932   2.915   1.952
 1151WAT     H1 4670   0.839   2.926   1.930
 1151WAT     H2 4671   0.951   2.824   1.930
 1151WAT    EPW 4672   0.922   2.905   1.946
 1152WAT      O 4673   3.590   3.513   2.997
 1152WAT     H1 4674   3.635   3.591   2.964
 1152WAT     H2 4675   3.510   3.509   2.946
 1152WAT    EPW 4676   3.586   3.523   2.986
 1153WAT      O 4677   3.659   0.808   1.188
 1153WAT     H1 4678   3.595   0.850   1.245
 1153WAT     H2 4679   3.707   0.880   1.148
 1153WAT    EPW 4680   3.657   0.823   1.190
 1154WAT      O 4681   0.430   1.259   0.672
 1154WAT     H1 4682   0.461   1.172   0.697
 1154WAT     H2 4683   0.495   1.319   0.707
 1154WAT    EPW 4684   0.443   1.255   0.680
 1155WAT      O 4685   3.433   0.398   2.583
 1155WAT     H1 4686   3.480   0.457   2.641
 1155WAT     H2 4687   3.486   0.396   2.503
 1155WAT    EPW 4688   3.446   0.405   2.580
 1156WAT      O 4689   2.078   3.770   0.945
 1156WAT     H1 4690   2.147   3.780   1.011
 1156WAT     H2 4691   2.104   3.692   0.895
 1156WAT    EPW 4692   2.091   3.761   0.947
 1157WAT      O 4693   3.651   1.439   1.018
 1157WAT     H1 4694   3.744   1.417   1.015
 1157WAT     H2 4695   3.615   1.406   0.936
 1157WAT    EPW 4696   3.658   1.432   1.007
 1158WAT      O 4697   0.036   3.711   3.744
 1158WAT     H1 4698   0.101   3.738   3.679
 1158WAT     H2 4699  -0.029   3.663   3.694
 1158WAT    EPW 4700   0.036   3.708   3.729
 1159WAT      O 4701   0.046   3.348   2.865
 1159WAT     H1 4702   0.083   3.436   2.868
 1159WAT     H2 4703   0.089   3.306   2.791
 1159WAT    EPW 4704   0.057   3.354   2.856
 1160WAT      O 4705   3.611   3.987   0.397
 1160WAT     H1 4706   3.659   4.061   0.360
 1160WAT     H2 4707   3.520   4.004   0.375
 1160WAT    EPW 4708   3.605   3.999   0.389
 1161WAT      O 4709   0.282   1.055   1.427
 1161WAT     H1 4710   0.199   1.092   1.397
 1161WAT     H2 4711   0.259   1.009   1.509
 1161WAT    EPW 4712   0.268   1.053   1.434
 1162WAT      O 4713   2.157   0.961   0.475
 1162WAT     H1 4714   2.094   1.010   0.528
 1162WAT     H2 4715   2.224   1.025   0.452
 1162WAT    EPW 4716   2.157   0.976   0.479
 1163WAT      O 4717   0.867   0.150   2.051
 1163WAT     H1 4718   0.780   0.135   2.013
 1163WAT     H2 4719   0.869   0.096   2.129
 1163WAT    EPW 4720   0.856   0.141   2.056
 1164WAT      O 4721   1.830   0.469   3.276
 1164WAT     H1 4722   1.862   0.393   3.325
 1164WAT     H2 4723   1.889   0.476   3.201
 1164WAT    EPW 4724   1.842   0.460   3.272
 1165WAT      O 4725   3.399   1.538   2.657
 1165WAT     H1 4726   3.449   1.466   2.618
 1165WAT     H2 4727   3.458   1.613   2.652
 1165WAT    EPW 4728   3.414   1.538   2.651
 1166WAT      O 4729   3.267   3.693   1.250
 1166WAT     H1 4730   3.282   3.703   1.344
 1166WAT     H2 4731   3.228   3.777   1.223
 1166WAT    EPW 4732   3.263   3.706   1.259
 1167WAT      O 4733   2.832   2.629   2.223
 1167WAT     H1 4734   2.807   2.674   2.304
 1167WAT     H2 4735   2.751   2.587   2.193
 1167WAT    EPW 4736   2.818   2.630   2.230
 1168WAT      O 4737   0.788   2.976   0.831
 1168WAT     H1 4738   0.860   2.915   0.839
 1168WAT     H2 4739   0.827   3.062   0.846
 1168WAT    EPW 4740   0.802   2.979   0.834
 1169WAT      O 4741   2.325   2.254   1.220
 1169WAT     H1 4742   2.294   2.250   1.311
 1169WAT     H2 4743   2.293   2.338   1.188
 1169WAT    EPW 4744   2.316   2.265   1.228
 1170WAT      O 4745   1.664   0.776   0.653
 1170WAT     H1 4746   1.628   0.688   0.637
 1170WAT     H2 4747   1.650   0.822   0.571
 1170WAT    EPW 4748   1.657   0.770   0.640
 1171WAT      O 4749   2.330   2.362   3.741
 1171WAT     H1 4750   2.283   2.330   3.818
 1171WAT     H2 4751   2.375   2.441   3.771
 1171WAT    EPW 4752   2.330   2.368   3.755
 1172WAT      O 4753   1.617   3.573   2.251
 1172WAT     H1 4754   1.531   3.549   2.283
 1172WAT     H2 4755   1.606   3.663   2.218
 1172WAT    EPW 4756   1.604   3.582   2.251
 1173WAT      O 4757   3.744   2.726   1.102
 1173WAT     H1 4758   3.722   2.722   1.009
 1173WAT     H2 4759   3.689   2.658   1.142
 1173WAT    EPW 4760   3.734   2.716   1.095
 1174WAT      O 4761   2.435   3.116   1.372
 1174WAT     H1 4762   2.391   3.097   1.289
 1174WAT     H2 4763   2.515   3.064   1.369
 1174WAT    EPW 4764   2.439   3.106   1.361
 1175WAT      O 4765   0.407   1.447   2.561
 1175WAT     H1 4766   0.448   1.419   2.642
 1175WAT     H2 4767   0.481   1.463   2.501
 1175WAT    EPW 4768   0.422   1.446   2.564
 1176WAT      O 4769   1.443   1.190   0.088
 1176WAT     H1 4770   1.508   1.257   0.107
 1176WAT     H2 4771   1.409   1.213   0.001
 1176WAT    EPW 4772   1.447   1.201   0.079
 1177WAT      O 4773   1.029   2.585   1.574
 1177WAT     H1 4774   1.086   2.547   1.641
 1177WAT     H2 4775   1.066   2.672   1.558
 1177WAT    EPW 4776   1.041   2.591   1.581
 1178WAT      O 4777   0.239   2.271   2.377
 1178WAT     H1 4778   0.316   2.215   2.368
 1178WAT     H2 4779   0.229   2.285   2.471
 1178WAT    EPW 4780   0.248   2.265   2.388
 1179WAT      O 4781   2.476   1.837   2.871
 1179WAT     H1 4782   2.423   1.790   2.936
 1179WAT     H2 4783   2.413   1.871   2.808
 1179WAT    EPW 4784   2.461   1.835   2.871
 1180WAT      O 4785   3.472   4.030   0.974
 1180WAT     H1 4786   3.442   4.121   0.977
 1180WAT     H2 4787   3.512   4.021   0.888
 1180WAT    EPW 4788   3.473   4.041   0.963
 1181WAT      O 4789   2.207   0.795   2.396
 1181WAT     H1 4790   2.151   0.720   2.420
 1181WAT     H2 4791   2.275   0.796   2.464
 1181WAT    EPW 4792   2.208   0.785   2.408
 1182WAT      O 4793   2.298   4.103   0.847
 1182WAT     H1 4794   2.226   4.072   0.792
 1182WAT     H2 4795   2.375   4.055   0.815
 1182WAT    EPW 4796   2.299   4.093   0.835
 1183WAT      O 4797   1.553   1.790   2.791
 1183WAT     H1 4798   1.560   1.727   2.720
 1183WAT     H2 4799   1.479   1.846   2.767
 1183WAT    EPW 4800   1.544   1.789   2.779
 1184WAT      O 4801   1.842   2.560   3.934
 1184WAT     H1 4802   1.876   2.490   3.991
 1184WAT     H2 4803   1.906   2.630   3.942
 1184WAT    EPW 4804   1.855   2.560   3.942
 1185WAT      O 4805   1.876   3.651   1.547
 1185WAT     H1 4806   1.860   3.745   1.557
 1185WAT     H2 4807   1.965   3.638   1.580
 1185WAT    EPW 4808   1.886   3.662   1.553
 1186WAT      O 4809   3.720   0.539   1.296
 1186WAT     H1 4810   3.790   0.512   1.237
 1186WAT     H2 4811   3.687   0.621   1.259
 1186WAT    EPW 4812   3.725   0.547   1.284
 1187WAT      O 4813   1.357   2.831   2.676
 1187WAT     H1 4814   1.328   2.862   2.590
 1187WAT     H2 4815   1.451   2.815   2.665
 1187WAT    EPW 4816   1.366   2.833   2.663
 1188WAT      O 4817   1.784   1.332   3.777
 1188WAT     H1 4818   1.841   1.353   3.704
 1188WAT     H2 4819   1.838   1.348   3.855
 1188WAT    EPW 4820   1.799   1.337   3.778
 1189WAT      O 4821   3.144   0.333   2.558
 1189WAT     H1 4822   3.168   0.306   2.647
 1189WAT     H2 4823   3.217   0.304   2.504
 1189WAT    EPW 4824   3.156   0.325   2.563
 1190WAT      O 4825   0.540   1.702   3.854
 1190WAT     H1 4826   0.485   1.656   3.790
 1190WAT     H2 4827   0.630   1.679   3.830
 1190WAT    EPW 4828   0.545   1.693   3.843
 1191WAT      O 4829   3.015   2.639   2.888
 1191WAT     H1 4830   3.032   2.556   2.845
 1191WAT     H2 4831   2.956   2.617   2.961
 1191WAT    EPW 4832   3.009   2.626   2.892
 1192WAT      O 4833   0.734   2.169   3.416
 1192WAT     H1 4834   0.734   2.136   3.325
 1192WAT     H2 4835   0.777   2.099   3.466
 1192WAT    EPW 4836   0.740   2.155   3.410
 1193WAT      O 4837   2.762   0.104   3.217
 1193WAT     H1 4838   2.674   0.136   3.200
 1193WAT     H2 4839   2.751   0.038   3.285
 1193WAT    EPW 4840   2.749   0.099   3.223
 1194WAT      O 4841   3.168   0.310   2.028
 1194WAT     H1 4842   3.128   0.384   1.982
 1194WAT     H2 4843   3.216   0.263   1.960
 1194WAT    EPW 4844   3.169   0.313   2.013
 1195WAT      O 4845   1.710   0.059   0.739
 1195WAT     H1 4846   1.631   0.038   0.689
 1195WAT     H2 4847   1.704   0.003   0.817
 1195WAT    EPW 4848   1.699   0.049   0.743
 1196WAT      O 4849   0.803   3.491   2.581
 1196WAT     H1 4850   0.722   3.538   2.560
 1196WAT     H2 4851   0.872   3.551   2.554
 1196WAT    EPW 4852   0.801   3.505   2.574
 1197WAT      O 4853   3.595   2.564   3.754
 1197WAT     H1 4854   3.558   2.505   3.819
 1197WAT     H2 4855   3.658   2.511   3.705
 1197WAT    EPW 4856   3.598   2.550   3.756
 1198WAT      O 4857   1.110   1.694   3.910
 1198WAT     H1 4858   1.130   1.623   3.850
 1198WAT     H2 4859   1.118   1.655   3.997
 1198WAT    EPW 4860   1.114   1.680   3.914
 1199WAT      O 4861   2.043   1.512   1.203
 1199WAT     H1 4862   1.962   1.562   1.216
 1199WAT     H2 4863   2.029   1.466   1.121
 1199WAT    EPW 4864   2.030   1.512   1.194
 1200WAT      O 4865   0.106   2.232   0.352
 1200WAT     H1 4866   0.040   2.166   0.329
 1200WAT     H2 4867   0.167   2.185   0.408
 1200WAT    EPW 4868   0.105   2.217   0.356
 1201WAT      O 4869   1.120   0.665   3.316
 1201WAT     H1 4870   1.037   0.685   3.272
 1201WAT     H2 4871   1.133   0.738   3.377
 1201WAT    EPW 4872   1.110   0.677   3.318
 1202WAT      O 4873   0.140   1.641   1.694
 1202WAT     H1 4874   0.102   1.713   1.745
 1202WAT     H2 4875   0.226   1.628   1.733
 1202WAT    EPW 4876   0.146   1.649   1.706
 1203WAT      O 4877   3.632   4.104   1.882
 1203WAT     H1 4878   3.638   4.010   1.902
 1203WAT     H2 4879   3.705   4.121   1.823
 1203WAT    EPW 4880   3.642   4.094   1.877
 1204WAT      O 4881   3.394   0.286   2.190
 1204WAT     H1 4882   3.301   0.276   2.171
 1204WAT     H2 4883   3.427   0.344   2.122
 1204WAT    EPW 4884   3.386   0.292   2.179
 1205WAT      O 4885   0.469   3.521   3.921
 1205WAT     H1 4886   0.448   3.486   3.834
 1205WAT     H2 4887   0.564   3.522   3.924
 1205WAT    EPW 4888   0.478   3.516   3.910
 1206WAT      O 4889   2.128   3.864   3.447
 1206WAT     H1 4890   2.114   3.912   3.366
 1206WAT     H2 4891   2.215   3.890   3.476
 1206WAT    EPW 4892   2.138   3.874   3.440
 1207WAT      O 4893   0.850   3.389   1.176
 1207WAT     H1 4894   0.784   3.321   1.191
 1207WAT     H2 4895   0.931   3.341   1.160
 1207WAT    EPW 4896   0.852   3.374   1.176
 1208WAT      O 4897   0.144   0.492   1.015
 1208WAT     H1 4898   0.070   0.526   0.965
 1208WAT     H2 4899   0.192   0.570   1.044
 1208WAT    EPW 4900   0.141   0.507   1.012
 1209WAT      O 4901   0.489   1.938   0.110
 1209WAT     H1 4902   0.394   1.937   0.122
 1209WAT     H2 4903   0.511   1.850   0.080
 1209WAT    EPW 4904   0.480   1.926   0.107
 1210WAT      O 4905   1.402   1.479   2.839
 1210WAT     H1 4906   1.407   1.532   2.759
 1210WAT     H2 4907   1.470   1.412   2.828
 1210WAT    EPW 4908   1.412   1.477   2.827
 1211WAT      O 4909   2.444   2.565   2.235
 1211WAT     H1 4910   2.407   2.478   2.223
 1211WAT     H2 4911   2.478   2.589   2.149
 1211WAT    EPW 4912   2.444   2.557   2.222
 1212WAT      O 4913   2.823   0.370   3.297
 1212WAT     H1 4914   2.912   0.370   3.332
 1212WAT     H2 4915   2.807   0.279   3.272
 1212WAT    EPW 4916   2.833   0.358   3.298
 1213WAT      O 4917   3.463   0.566   0.274
 1213WAT     H1 4918   3.373   0.559   0.242
 1213WAT     H2 4919   3.458   0.632   0.343
 1213WAT    EPW 4920   3.450   0.574   0.279
 1214WAT      O 4921   0.383   2.427   2.846
 1214WAT     H1 4922   0.466   2.392   2.879
 1214WAT     H2 4923   0.359   2.369   2.774
 1214WAT    EPW 4924   0.391   2.415   2.841
 1215WAT      O 4925   0.673   1.767   1.126
 1215WAT     H1 4926   0.694   1.792   1.036
 1215WAT     H2 4927   0.630   1.844   1.163
 1215WAT    EPW 4928   0.671   1.781   1.119
 1216WAT      O 4929   2.989   4.042   2.907
 1216WAT     H1 4930   2.994   4.111   2.840
 1216WAT     H2 4931   2.895   4.025   2.917
 1216WAT    EPW 4932   2.977   4.049   2.899
 1217WAT      O 4933   3.662   0.319   3.763
 1217WAT     H1 4934   3.575   0.311   3.724
 1217WAT     H2 4935   3.646   0.350   3.852
 1217WAT    EPW 4936   3.649   0.322   3.770
 1218WAT      O 4937   0.552   0.713   0.161
 1218WAT     H1 4938   0.589   0.770   0.229
 1218WAT     H2 4939   0.512   0.773   0.098
 1218WAT    EPW 4940   0.551   0.729   0.162
 1219WAT      O 4941   0.616   2.254   3.738
 1219WAT     H1 4942   0.556   2.231   3.668
 1219WAT     H2 4943   0.563   2.302   3.801
 1219WAT    EPW 4944   0.601   2.258   3.737
 1220WAT      O 4945   0.357   1.482   3.352
 1220WAT     H1 4946   0.315   1.553   3.305
 1220WAT     H2 4947   0.299   1.466   3.427
 1220WAT    EPW 4948   0.344   1.489   3.356
 1221WAT      O 4949   2.422   3.103   1.697
 1221WAT     H1 4950   2.421   3.127   1.605
 1221WAT     H2 4951   2.435   3.009   1.698
 1221WAT    EPW 4952   2.423   3.094   1.685
 1222WAT      O 4953   1.461   2.242   1.783
 1222WAT     H1 4954   1.520   2.233   1.857
 1222WAT     H2 4955   1.486   2.171   1.723
 1222WAT    EPW 4956   1.472   2.231   1.785
 1223WAT      O 4957   2.643   1.776   0.862
 1223WAT     H1 4958   2.680   1.722   0.932
 1223WAT     H2 4959   2.676   1.864   0.880
 1223WAT    EPW 4960   2.652   1.780   0.874
 1224WAT      O 4961   2.419   0.489   2.160
 1224WAT     H1 4962   2.427   0.421   2.092
 1224WAT     H2 4963   2.509   0.504   2.189
 1224WAT    EPW 4964   2.432   0.482   2.155
 1225WAT      O 4965   0.322   1.103   0.355
 1225WAT     H1 4966   0.245   1.159   0.359
 1225WAT     H2 4967   0.395   1.164   0.348
 1225WAT    EPW 4968   0.321   1.118   0.355
 1226WAT      O 4969   1.129   2.003   3.518
 1226WAT     H1 4970   1.123   2.084   3.467
 1226WAT     H2 4971   1.039   1.979   3.537
 1226WAT    EPW 4972   1.117   2.010   3.514
 1227WAT      O 4973   1.415   2.503   2.746
 1227WAT     H1 4974   1.427   2.549   2.662
 1227WAT     H2 4975   1.341   2.547   2.787
 1227WAT    EPW 4976   1.407   2.515   2.740
 1228WAT      O 4977   0.407   0.594   1.383
 1228WAT     H1 4978   0.472   0.575   1.317
 1228WAT     H2 4979   0.361   0.511   1.396
 1228WAT    EPW 4980   0.409   0.581   1.376
 1229WAT      O 4981   2.701   2.406   3.803
 1229WAT     H1 4982   2.664   2.411   3.715
 1229WAT     H2 4983   2.630   2.372   3.857
 1229WAT    EPW 4984   2.687   2.402   3.798
 1230WAT      O 4985   0.451   3.609   0.444
 1230WAT     H1 4986   0.435   3.684   0.386
 1230WAT     H2 4987   0.489   3.542   0.386
 1230WAT    EPW 4988   0.454   3.610   0.428
 1231WAT      O 4989   2.053   1.883   0.364
 1231WAT     H1 4990   2.098   1.799   0.349
 1231WAT     H2 4991   2.093   1.917   0.444
 1231WAT    EPW 4992   2.064   1.876   0.373
 1232WAT      O 4993   0.053   3.721   3.441
 1232WAT     H1 4994   0.092   3.637   3.419
 1232WAT     H2 4995   0.115   3.786   3.407
 1232WAT    EPW 4996   0.066   3.719   3.433
 1233WAT      O 4997   0.680   0.807   2.706
 1233WAT     H1 4998   0.657   0.834   2.795
 1233WAT     H2 4999   0.670   0.886   2.654
 1233WAT    EPW 5000   0.676   0.821   2.711
 1234WAT      O 5001   0.480   3.925   1.008
 1234WAT     H1 5002   0.518   3.930   0.920
 1234WAT     H2 5003   0.554   3.903   1.064
 1234WAT    EPW 5004   0.494   3.923   1.003
 1235WAT      O 5005   0.912   1.605   3.483
 1235WAT     H1 5006   0.856   1.664   3.534
 1235WAT     H2 5007   0.997   1.648   3.483
 1235WAT    EPW 5008   0.915   1.618   3.490
 1236WAT      O 5009   3.078   0.588   2.561
 1236WAT     H1 5010   3.123   0.630   2.634
 1236WAT     H2 5011   3.090   0.494   2.576
 1236WAT    EPW 5012   3.085   0.581   2.573
 1237WAT      O 5013   3.279   3.645   0.605
 1237WAT     H1 5014   3.200   3.595   0.582
 1237WAT     H2 5015   3.342   3.621   0.537
 1237WAT    EPW 5016   3.277   3.635   0.593
 1238WAT      O 5017   2.556   3.905   2.537
 1238WAT     H1 5018   2.461   3.896   2.552
 1238WAT     H2 5019   2.585   3.967   2.604
 1238WAT    EPW 5020   2.547   3.912   2.547
 1239WAT      O 5021   1.220   2.310   2.603
 1239WAT     H1 5022   1.166   2.375   2.650
 1239WAT     H2 5023   1.298   2.301   2.657
 1239WAT    EPW 5024   1.223   2.318   2.617
 1240WAT      O 5025   2.867   2.689   1.209
 1240WAT     H1 5026   2.773   2.701   1.194
 1240WAT     H2 5027   2.871   2.624   1.280
 1240WAT    EPW 5028   2.855   2.682   1.217
 1241WAT      O 5029   2.158   2.617   2.391
 1241WAT     H1 5030   2.110   2.617   2.474
 1241WAT     H2 5031   2.114   2.552   2.337
 1241WAT    EPW 5032   2.146   2.609   2.395
 1242WAT      O 5033   0.773   3.985   2.186
 1242WAT     H1 5034   0.805   3.898   2.159
 1242WAT     H2 5035   0.738   4.023   2.105
 1242WAT    EPW 5036   0.773   3.978   2.172
 1243WAT      O 5037   1.759   2.326   3.435
 1243WAT     H1 5038   1.707   2.250   3.409
 1243WAT     H2 5039   1.750   2.329   3.530
 1243WAT    EPW 5040   1.751   2.316   3.444
 1244WAT      O 5041   3.333   1.289   0.896
 1244WAT     H1 5042   3.268   1.336   0.949
 1244WAT     H2 5043   3.319   1.197   0.917
 1244WAT    EPW 5044   3.322   1.283   0.906
 1245WAT      O 5045   0.286   2.425   2.143
 1245WAT     H1 5046   0.254   2.353   2.089
 1245WAT     H2 5047   0.288   2.389   2.232
 1245WAT    EPW 5048   0.282   2.411   2.148
 1246WAT      O 5049   0.713   1.912   0.861
 1246WAT     H1 5050   0.781   1.869   0.809
 1246WAT     H2 5051   0.631   1.886   0.819
 1246WAT    EPW 5052   0.711   1.903   0.848
 1247WAT      O 5053   2.872   0.670   1.347
 1247WAT     H1 5054   2.905   0.749   1.303
 1247WAT     H2 5055   2.869   0.694   1.440
 1247WAT    EPW 5056   2.876   0.684   1.353
 1248WAT      O 5057   3.001   3.897   2.085
 1248WAT     H1 5058   3.068   3.844   2.128
 1248WAT     H2 5059   2.923   3.887   2.141
 1248WAT    EPW 5060   2.999   3.889   2.098
 1249WAT      O 5061   1.369   3.259   3.101
 1249WAT     H1 5062   1.402   3.291   3.186
 1249WAT     H2 5063   1.416   3.312   3.036
 1249WAT    EPW 5064   1.380   3.270   3.104
 1250WAT      O 5065   0.394   3.685   0.096
 1250WAT     H1 5066   0.463   3.738   0.137
 1250WAT     H2 5067   0.435   3.646   0.019
 1250WAT    EPW 5068   0.409   3.687   0.091
 1251WAT      O 5069   2.203   1.179   2.900
 1251WAT     H1 5070   2.197   1.137   2.814
 1251WAT     H2 5071   2.194   1.108   2.963
 1251WAT    EPW 5072   2.201   1.164   2.897
 1252WAT      O 5073   2.018   2.652   3.407
 1252WAT     H1 5074   2.071   2.590   3.458
 1252WAT     H2 5075   1.936   2.606   3.391
 1252WAT    EPW 5076   2.014   2.638   3.411
 1253WAT      O 5077   2.947   3.021   3.606
 1253WAT     H1 5078   2.879   3.084   3.582
 1253WAT     H2 5079   2.899   2.944   3.638
 1253WAT    EPW 5080   2.932   3.019   3.607
 1254WAT      O 5081   2.312   3.144   4.047
 1254WAT     H1 5082   2.261   3.197   3.987
 1254WAT     H2 5083   2.254   3.129   4.122
 1254WAT    EPW 5084   2.298   3.149   4.049
 1255WAT      O 5085   2.507   0.845   1.832
 1255WAT     H1 5086   2.500   0.753   1.809
 1255WAT     H2 5087   2.569   0.847   1.905
 1255WAT    EPW 5088   2.514   0.833   1.839
 1256WAT      O 5089   1.024   2.003   2.118
 1256WAT     H1 5090   1.118   1.998   2.098
 1256WAT     H2 5091   0.999   1.912   2.136
 1256WAT    EPW 5092   1.033   1.991   2.118
 1257WAT      O 5093   1.619   2.013   0.441
 1257WAT     H1 5094   1.635   1.932   0.392
 1257WAT     H2 5095   1.706   2.054   0.448
 1257WAT    EPW 5096   1.633   2.008   0.435
 1258WAT      O 5097   2.449   1.697   1.475
 1258WAT     H1 5098   2.399   1.663   1.401
 1258WAT     H2 5099   2.471   1.619   1.526
 1258WAT    EPW 5100   2.445   1.682   1.472
 1259WAT      O 5101   0.836   1.850   3.821
 1259WAT     H1 5102   0.893   1.915   3.863
 1259WAT     H2 5103   0.874   1.766   3.846
 1259WAT    EPW 5104   0.848   1.848   3.830
 1260WAT      O 5105   3.487   3.591   1.993
 1260WAT     H1 5106   3.461   3.529   1.925
 1260WAT     H2 5107   3.519   3.536   2.064
 1260WAT    EPW 5108   3.488   3.576   1.993
 1261WAT      O 5109   3.692   2.823   2.575
 1261WAT     H1 5110   3.660   2.758   2.512
 1261WAT     H2 5111   3.778   2.791   2.601
 1261WAT    EPW 5112   3.699   2.810   2.570
 1262WAT      O 5113   1.721   3.316   3.645
 1262WAT     H1 5114   1.629   3.332   3.663
 1262WAT     H2 5115   1.724   3.295   3.552
 1262WAT    EPW 5116   1.710   3.315   3.635
 1263WAT      O 5117   0.036   3.374   1.889
 1263WAT     H1 5118   0.022   3.283   1.863
 1263WAT     H2 5119  -0.010   3.425   1.822
 1263WAT    EPW 5120   0.028   3.369   1.877
 1264WAT      O 5121   0.012   2.814   3.690
 1264WAT     H1 5122   0.014   2.909   3.696
 1264WAT     H2 5123  -0.075   2.789   3.720
 1264WAT    EPW 5124   0.001   2.823   3.695
 1265WAT      O 5125   0.919   0.922   1.482
 1265WAT     H1 5126   0.894   0.869   1.558
 1265WAT     H2 5127   0.855   0.899   1.415
 1265WAT    EPW 5128   0.907   0.912   1.483
 1266WAT      O 5129   2.600   0.239   2.436
 1266WAT     H1 5130   2.585   0.308   2.371
 1266WAT     H2 5131   2.658   0.177   2.393
 1266WAT    EPW 5132   2.606   0.240   2.422
 1267WAT      O 5133   0.248   2.136   3.024
 1267WAT     H1 5134   0.259   2.190   2.945
 1267WAT     H2 5135   0.171   2.082   3.006
 1267WAT    EPW 5136   0.240   2.136   3.011
 1268WAT      O 5137   0.912   0.319   0.981
 1268WAT     H1 5138   0.837   0.322   0.922
 1268WAT     H2 5139   0.952   0.406   0.973
 1268WAT    EPW 5140   0.908   0.331   0.972
 1269WAT      O 5141   0.831   1.645   2.680
 1269WAT     H1 5142   0.922   1.652   2.652
 1269WAT     H2 5143   0.783   1.704   2.622
 1269WAT    EPW 5144   0.836   1.654   2.669
 1270WAT      O 5145   3.365   1.364   3.415
 1270WAT     H1 5146   3.417   1.349   3.336
 1270WAT     H2 5147   3.326   1.279   3.434
 1270WAT    EPW 5148   3.367   1.351   3.407
 1271WAT      O 5149   2.203   3.750   0.575
 1271WAT     H1 5150   2.130   3.736   0.515
 1271WAT     H2 5151   2.281   3.735   0.521
 1271WAT    EPW 5152   2.204   3.746   0.560
 1272WAT      O 5153   2.399   1.061   4.012
 1272WAT     H1 5154   2.312   1.101   4.020
 1272WAT     H2 5155   2.386   0.970   4.037
 1272WAT    EPW 5156   2.386   1.054   4.016
 1273WAT      O 5157   2.821   2.683   3.437
 1273WAT     H1 5158   2.894   2.720   3.387
 1273WAT     H2 5159   2.746   2.689   3.377
 1273WAT    EPW 5160   2.820   2.689   3.422
 1274WAT      O 5161   1.281   2.197   0.136
 1274WAT     H1 5162   1.190   2.210   0.109
 1274WAT     H2 5163   1.281   2.112   0.181
 1274WAT    EPW 5164   1.269   2.188   0.139
 1275WAT      O 5165   1.430   0.325   0.636
 1275WAT     H1 5166   1.455   0.290   0.721
 1275WAT     H2 5167   1.489   0.281   0.574
 1275WAT    EPW 5168   1.441   0.314   0.639
 1276WAT      O 5169   2.108   3.806   3.905
 1276WAT     H1 5170   2.097   3.712   3.917
 1276WAT     H2 5171   2.169   3.832   3.974
 1276WAT    EPW 5172   2.115   3.797   3.915
 1277WAT      O 5173   2.871   3.836   2.666
 1277WAT     H1 5174   2.965   3.826   2.651
 1277WAT     H2 5175   2.851   3.926   2.641
 1277WAT    EPW 5176   2.881   3.846   2.661
 1278WAT      O 5177   2.806   1.002   1.629
 1278WAT     H1 5178   2.712   1.007   1.649
 1278WAT     H2 5179   2.849   1.033   1.709
 1278WAT    EPW 5180   2.799   1.006   1.642
 1279WAT      O 5181   1.573   4.002   1.989
 1279WAT     H1 5182   1.538   3.941   1.924
 1279WAT     H2 5183   1.526   4.084   1.974
 1279WAT    EPW 5184   1.562   4.005   1.978
 1280WAT      O 5185   1.493   1.277   0.867
 1280WAT     H1 5186   1.471   1.289   0.959
 1280WAT     H2 5187   1.437   1.339   0.820
 1280WAT    EPW 5188   1.483   1.286   0.873
 1281WAT      O 5189   2.550   2.311   0.981
 1281WAT     H1 5190   2.464   2.345   0.955
 1281WAT     H2 5191   2.537   2.279   1.070
 1281WAT    EPW 5192   2.537   2.311   0.989
 1282WAT      O 5193   2.443   1.749   0.149
 1282WAT     H1 5194   2.362   1.744   0.097
 1282WAT     H2 5195   2.513   1.747   0.084
 1282WAT    EPW 5196   2.441   1.748   0.133
 1283WAT      O 5197   0.561   1.988   1.290
 1283WAT     H1 5198   0.550   2.083   1.283
 1283WAT     H2 5199   0.559   1.971   1.384
 1283WAT    EPW 5200   0.560   1.999   1.301
 1284WAT      O 5201   2.144   0.724   1.320
 1284WAT     H1 5202   2.086   0.753   1.249
 1284WAT     H2 5203   2.219   0.686   1.274
 1284WAT    EPW 5204   2.146   0.723   1.304
 1285WAT      O 5205   2.993   2.675   1.689
 1285WAT     H1 5206   2.915   2.710   1.647
 1285WAT     H2 5207   2.960   2.627   1.765
 1285WAT    EPW 5208   2.979   2.673   1.693
 1286WAT      O 5209   1.921   0.210   1.278
 1286WAT     H1 5210   1.860   0.283   1.291
 1286WAT     H2 5211   1.985   0.242   1.214
 1286WAT    EPW 5212   1.921   0.224   1.271
 1287WAT      O 5213   0.677   1.389   3.743
 1287WAT     H1 5214   0.601   1.395   3.684
 1287WAT     H2 5215   0.746   1.352   3.688
 1287WAT    EPW 5216   0.676   1.385   3.728
 1288WAT      O 5217   0.714   1.338   1.179
 1288WAT     H1 5218   0.630   1.349   1.224
 1288WAT     H2 5219   0.769   1.291   1.242
 1288WAT    EPW 5220   0.710   1.333   1.193
 1289WAT      O 5221   2.539   4.057   3.855
 1289WAT     H1 5222   2.613   4.083   3.800
 1289WAT     H2 5223   2.534   4.124   3.923
 1289WAT    EPW 5224   2.548   4.069   3.857
 1290WAT      O 5225   1.052   3.634   3.285
 1290WAT     H1 5226   1.144   3.654   3.306
 1290WAT     H2 5227   1.022   3.710   3.236
 1290WAT    EPW 5228   1.060   3.647   3.281
 1291WAT      O 5229   2.639   3.808   3.937
 1291WAT     H1 5230   2.654   3.810   4.031
 1291WAT     H2 5231   2.603   3.894   3.916
 1291WAT    EPW 5232   2.636   3.819   3.946
 1292WAT      O 5233   2.533   2.347   0.000
 1292WAT     H1 5234   2.587   2.387   0.068
 1292WAT     H2 5235   2.506   2.263   0.038
 1292WAT    EPW 5236   2.536   2.341   0.014
 1293WAT      O 5237   2.493   1.141   2.595
 1293WAT     H1 5238   2.560   1.194   2.552
 1293WAT     H2 5239   2.495   1.169   2.686
 1293WAT    EPW 5240   2.502   1.152   2.601
 1294WAT      O 5241   0.715   0.006   3.248
 1294WAT     H1 5242   0.726   0.024   3.154
 1294WAT     H2 5243   0.688   0.090   3.285
 1294WAT    EPW 5244   0.713   0.020   3.240
 1295WAT      O 5245   2.448   2.616   0.840
 1295WAT     H1 5246   2.371   2.583   0.888
 1295WAT     H2 5247   2.479   2.689   0.893
 1295WAT    EPW 5248   2.442   2.621   0.853
 1296WAT      O 5249   2.845   1.131   2.602
 1296WAT     H1 5250   2.899   1.067   2.555
 1296WAT     H2 5251   2.838   1.096   2.691
 1296WAT    EPW 5252   2.851   1.118   2.607
 1297WAT      O 5253   0.677   3.556   2.263
 1297WAT     H1 5254   0.605   3.606   2.223
 1297WAT     H2 5255   0.694   3.601   2.346
 1297WAT    EPW 5256   0.670   3.568   2.269
 1298WAT      O 5257   1.825   0.789   2.822
 1298WAT     H1 5258   1.847   0.880   2.799
 1298WAT     H2 5259   1.821   0.744   2.738
 1298WAT    EPW 5260   1.827   0.795   2.808
 1299WAT      O 5261   0.336   3.717   3.041
 1299WAT     H1 5262   0.379   3.715   3.127
 1299WAT     H2 5263   0.283   3.796   3.043
 1299WAT    EPW 5264   0.335   3.727   3.053
 1300WAT      O 5265   0.054   3.498   1.198
 1300WAT     H1 5266   0.004   3.423   1.166
 1300WAT     H2 5267   0.123   3.459   1.252
 1300WAT    EPW 5268   0.057   3.483   1.201
 1301WAT      O 5269   1.204   0.048   2.515
 1301WAT     H1 5270   1.286   0.087   2.484
 1301WAT     H2 5271   1.147   0.049   2.438
 1301WAT    EPW 5272   1.207   0.053   2.500
 1302WAT      O 5273   1.776   3.777   3.884
 1302WAT     H1 5274   1.810   3.710   3.824
 1302WAT     H2 5275   1.786   3.739   3.971
 1302WAT    EPW 5276   1.782   3.763   3.887
 1303WAT      O 5277   1.052   1.676   0.294
 1303WAT     H1 5278   1.072   1.768   0.308
 1303WAT     H2 5279   0.962   1.665   0.326
 1303WAT    EPW 5280   1.043   1.687   0.300
 1304WAT      O 5281   3.422   3.753   2.775
 1304WAT     H1 5282   3.412   3.677   2.718
 1304WAT     H2 5283   3.391   3.724   2.861
 1304WAT    EPW 5284   3.416   3.739   2.779
 1305WAT      O 5285   2.868   2.966   2.218
 1305WAT     H1 5286   2.836   3.038   2.163
 1305WAT     H2 5287   2.806   2.962   2.290
 1305WAT    EPW 5288   2.856   2.975   2.220
 1306WAT      O 5289   2.600   0.159   0.610
 1306WAT     H1 5290   2.574   0.233   0.665
 1306WAT     H2 5291   2.650   0.102   0.670
 1306WAT    EPW 5292   2.603   0.161   0.625
 1307WAT      O 5293   3.103   3.518   1.664
 1307WAT     H1 5294   3.078   3.574   1.737
 1307WAT     H2 5295   3.071   3.431   1.687
 1307WAT    EPW 5296   3.095   3.514   1.676
 1308WAT      O 5297   3.129   0.723   1.577
 1308WAT     H1 5298   3.038   0.721   1.608
 1308WAT     H2 5299   3.181   0.709   1.656
 1308WAT    EPW 5300   3.124   0.721   1.592
 1309WAT      O 5301   1.121   3.562   0.518
 1309WAT     H1 5302   1.056   3.580   0.451
 1309WAT     H2 5303   1.091   3.612   0.594
 1309WAT    EPW 5304   1.109   3.571   0.519
 1310WAT      O 5305   0.291   3.261   0.008
 1310WAT     H1 5306   0.334   3.188   0.053
 1310WAT     H2 5307   0.357   3.330   0.005
 1310WAT    EPW 5308   0.305   3.260   0.014
 1311WAT      O 5309   1.662   1.368   0.534
 1311WAT     H1 5310   1.578   1.332   0.563
 1311WAT     H2 5311   1.703   1.295   0.487
 1311WAT    EPW 5312   1.656   1.353   0.532
 1312WAT      O 5313   1.065   1.469   1.504
 1312WAT     H1 5314   1.063   1.559   1.537
 1312WAT     H2 5315   1.004   1.470   1.430
 1312WAT    EPW 5316   1.056   1.481   1.498
 1313WAT      O 5317   2.596   3.376   4.011
 1313WAT     H1 5318   2.542   3.454   4.022
 1313WAT     H2 5319   2.552   3.325   3.944
 1313WAT    EPW 5320   2.583   3.380   4.004
 1314WAT      O 5321   3.736   3.479   0.324
 1314WAT     H1 5322   3.714   3.387   0.306
 1314WAT     H2 5323   3.654   3.518   0.353
 1314WAT    EPW 5324   3.723   3.472   0.325
 1315WAT      O 5325   0.463   1.097   1.025
 1315WAT     H1 5326   0.550   1.058   1.010
 1315WAT     H2 5327   0.476   1.191   1.012
 1315WAT    EPW 5328   0.476   1.104   1.022
 1316WAT      O 5329   2.203   3.220   0.247
 1316WAT     H1 5330   2.120   3.259   0.223
 1316WAT     H2 5331   2.182   3.130   0.271
 1316WAT    EPW 5332   2.190   3.213   0.247
 1317WAT      O 5333   0.885   3.897   0.004
 1317WAT     H1 5334   0.952   3.924   0.067
 1317WAT     H2 5335   0.846   3.819   0.043
 1317WAT    EPW 5336   0.888   3.890   0.018
 1318WAT      O 5337   1.038   2.639   1.961
 1318WAT     H1 5338   1.064   2.593   1.881
 1318WAT     H2 5339   0.946   2.616   1.974
 1318WAT    EPW 5340   1.029   2.630   1.952
 1319WAT      O 5341   2.295   3.865   0.060
 1319WAT     H1 5342   2.254   3.839   0.143
 1319WAT     H2 5343   2.309   3.959   0.068
 1319WAT    EPW 5344   2.291   3.874   0.072
 1320WAT      O 5345   3.346   4.094   3.390
 1320WAT     H1 5346   3.431   4.077   3.430
 1320WAT     H2 5347   3.332   4.021   3.330
 1320WAT    EPW 5348   3.355   4.082   3.388
 1321WAT      O 5349   1.179   0.129   1.144
 1321WAT     H1 5350   1.127   0.106   1.067
 1321WAT     H2 5351   1.177   0.051   1.198
 1321WAT    EPW 5352   1.172   0.116   1.141
 1322WAT      O 5353   0.561   3.345   2.756
 1322WAT     H1 5354   0.479   3.372   2.797
 1322WAT     H2 5355   0.629   3.384   2.810
 1322WAT    EPW 5356   0.559   3.354   2.768
 1323WAT      O 5357   3.340   3.885   3.208
 1323WAT     H1 5358   3.352   3.793   3.234
 1323WAT     H2 5359   3.262   3.884   3.152
 1323WAT    EPW 5360   3.331   3.872   3.204
 1324WAT      O 5361   2.975   0.210   0.541
 1324WAT     H1 5362   2.984   0.292   0.590
 1324WAT     H2 5363   2.920   0.155   0.596
 1324WAT    EPW 5364   2.969   0.214   0.554
 1325WAT      O 5365   3.549   1.460   3.199
 1325WAT     H1 5366   3.584   1.432   3.115
 1325WAT     H2 5367   3.626   1.470   3.255
 1325WAT    EPW 5368   3.564   1.457   3.196
 1326WAT      O 5369   2.179   0.178   1.878
 1326WAT     H1 5370   2.249   0.244   1.878
 1326WAT     H2 5371   2.183   0.139   1.965
 1326WAT    EPW 5372   2.189   0.182   1.889
 1327WAT      O 5373   2.124   3.089   3.669
 1327WAT     H1 5374   2.095   2.998   3.664
 1327WAT     H2 5375   2.108   3.124   3.582
 1327WAT    EPW 5376   2.118   3.082   3.657
 1328WAT      O 5377   2.164   3.241   1.806
 1328WAT     H1 5378   2.114   3.160   1.798
 1328WAT     H2 5379   2.253   3.216   1.779
 1328WAT    EPW 5380   2.169   3.227   1.801
 1329WAT      O 5381   0.259   2.821   1.085
 1329WAT     H1 5382   0.172   2.784   1.099
 1329WAT     H2 5383   0.277   2.807   0.992
 1329WAT    EPW 5384   0.250   2.814   1.075
 1330WAT      O 5385   2.375   3.420   2.971
 1330WAT     H1 5386   2.356   3.327   2.962
 1330WAT     H2 5387   2.411   3.428   3.059
 1330WAT    EPW 5388   2.377   3.409   2.981
 1331WAT      O 5389   0.417   0.869   3.777
 1331WAT     H1 5390   0.507   0.840   3.764
 1331WAT     H2 5391   0.380   0.872   3.689
 1331WAT    EPW 5392   0.424   0.866   3.764
 1332WAT      O 5393   0.226   2.168   2.740
 1332WAT     H1 5394   0.134   2.194   2.741
 1332WAT     H2 5395   0.225   2.076   2.716
 1332WAT    EPW 5396   0.214   2.159   2.737
 1333WAT      O 5397   1.093   3.837   2.384
 1333WAT     H1 5398   1.105   3.882   2.468
 1333WAT     H2 5399   1.172   3.858   2.334
 1333WAT    EPW 5400   1.105   3.846   2.389
 1334WAT      O 5401   2.435   3.093   0.714
 1334WAT     H1 5402   2.508   3.152   0.693
 1334WAT     H2 5403   2.357   3.147   0.707
 1334WAT    EPW 5404   2.434   3.108   0.710
 1335WAT      O 5405   2.244   2.274   1.482
 1335WAT     H1 5406   2.207   2.345   1.429
 1335WAT     H2 5407   2.168   2.231   1.521
 1335WAT    EPW 5408   2.229   2.278   1.480
 1336WAT      O 5409   2.258   2.904   2.916
 1336WAT     H1 5410   2.278   2.893   2.823
 1336WAT     H2 5411   2.306   2.833   2.959
 1336WAT    EPW 5412   2.267   2.893   2.909
 1337WAT      O 5413   1.938   0.508   1.435
 1337WAT     H1 5414   2.011   0.452   1.409
 1337WAT     H2 5415   1.868   0.487   1.374
 1337WAT    EPW 5416   1.939   0.498   1.424
 1338WAT      O 5417   2.989   3.527   0.934
 1338WAT     H1 5418   2.982   3.585   0.858
 1338WAT     H2 5419   2.954   3.443   0.904
 1338WAT    EPW 5420   2.983   3.524   0.920
 1339WAT      O 5421   3.445   3.664   0.207
 1339WAT     H1 5422   3.387   3.589   0.196
 1339WAT     H2 5423   3.497   3.667   0.126
 1339WAT    EPW 5424   3.444   3.655   0.195
 1340WAT      O 5425   2.040   3.912   1.700
 1340WAT     H1 5426   2.055   3.819   1.680
 1340WAT     H2 5427   1.990   3.945   1.625
 1340WAT    EPW 5428   2.035   3.904   1.688
 1341WAT      O 5429   2.639   3.615   2.469
 1341WAT     H1 5430   2.631   3.674   2.544
 1341WAT     H2 5431   2.600   3.662   2.396
 1341WAT    EPW 5432   2.633   3.629   2.470
 1342WAT      O 5433   0.827   2.730   1.255
 1342WAT     H1 5434   0.786   2.726   1.169
 1342WAT     H2 5435   0.921   2.733   1.237
 1342WAT    EPW 5436   0.834   2.730   1.242
 1343WAT      O 5437   2.418   3.521   0.600
 1343WAT     H1 5438   2.327   3.514   0.570
 1343WAT     H2 5439   2.410   3.536   0.694
 1343WAT    EPW 5440   2.405   3.522   0.608
 1344WAT      O 5441   3.204   1.901   0.435
 1344WAT     H1 5442   3.215   1.810   0.463
 1344WAT     H2 5443   3.142   1.897   0.362
 1344WAT    EPW 5444   3.197   1.888   0.429
 1345WAT      O 5445   1.131   2.888   2.222
 1345WAT     H1 5446   1.042   2.916   2.200
 1345WAT     H2 5447   1.148   2.814   2.163
 1345WAT    EPW 5448   1.122   2.882   2.211
 1346WAT      O 5449   2.589   2.661   1.181
 1346WAT     H1 5450   2.525   2.670   1.252
 1346WAT     H2 5451   2.580   2.569   1.153
 1346WAT    EPW 5452   2.579   2.650   1.187
 1347WAT      O 5453   0.058   1.374   1.426
 1347WAT     H1 5454  -0.030   1.400   1.398
 1347WAT     H2 5455   0.057   1.389   1.521
 1347WAT    EPW 5456   0.046   1.380   1.435
 1348WAT      O 5457   1.513   0.346   2.179
 1348WAT     H1 5458   1.471   0.406   2.118
 1348WAT     H2 5459   1.445   0.326   2.244
 1348WAT    EPW 5460   1.499   0.351   2.180
 1349WAT      O 5461   2.687   3.079   3.865
 1349WAT     H1 5462   2.669   3.053   3.955
 1349WAT     H2 5463   2.609   3.052   3.816
 1349WAT    EPW 5464   2.674   3.072   3.870
 1350WAT      O 5465   1.030   1.033   2.593
 1350WAT     H1 5466   1.046   1.043   2.499
 1350WAT     H2 5467   1.005   0.941   2.603
 1350WAT    EPW 5468   1.029   1.022   2.582
 1351WAT      O 5469   2.701   3.624   0.637
 1351WAT     H1 5470   2.632   3.584   0.584
 1351WAT     H2 5471   2.677   3.716   0.642
 1351WAT    EPW 5472   2.689   3.631   0.631
 1352WAT      O 5473   1.259   3.369   0.686
 1352WAT     H1 5474   1.193   3.402   0.624
 1352WAT     H2 5475   1.318   3.443   0.700
 1352WAT    EPW 5476   1.258   3.383   0.680
 1353WAT      O 5477   3.107   3.582   2.833
 1353WAT     H1 5478   3.103   3.659   2.890
 1353WAT     H2 5479   3.067   3.611   2.751
 1353WAT    EPW 5480   3.101   3.596   2.829
 1354WAT      O 5481   2.158   4.022   0.629
 1354WAT     H1 5482   2.065   4.014   0.651
 1354WAT     H2 5483   2.185   3.932   0.608
 1354WAT    EPW 5484   2.149   4.009   0.629
 1355WAT      O 5485   0.046   3.352   3.152
 1355WAT     H1 5486  -0.044   3.369   3.181
 1355WAT     H2 5487   0.038   3.338   3.058
 1355WAT    EPW 5488   0.033   3.353   3.143
 1356WAT      O 5489   0.558   2.374   0.126
 1356WAT     H1 5490   0.475   2.326   0.126
 1356WAT     H2 5491   0.624   2.305   0.137
 1356WAT    EPW 5492   0.556   2.358   0.128
 1357WAT      O 5493   2.617   2.433   2.863
 1357WAT     H1 5494   2.617   2.455   2.956
 1357WAT     H2 5495   2.609   2.337   2.861
 1357WAT    EPW 5496   2.616   2.423   2.875
 1358WAT      O 5497   3.030   1.973   2.105
 1358WAT     H1 5498   3.126   1.972   2.106
 1358WAT     H2 5499   3.007   2.065   2.113
 1358WAT    EPW 5500   3.040   1.985   2.106
 1359WAT      O 5501   0.140   0.464   3.386
 1359WAT     H1 5502   0.136   0.531   3.454
 1359WAT     H2 5503   0.226   0.423   3.399
 1359WAT    EPW 5504   0.151   0.467   3.397
 1360WAT      O 5505   1.213   3.261   1.076
 1360WAT     H1 5506   1.159   3.334   1.045
 1360WAT     H2 5507   1.162   3.222   1.148
 1360WAT    EPW 5508   1.199   3.265   1.081
 1361WAT      O 5509   0.262   2.336   0.948
 1361WAT     H1 5510   0.325   2.392   0.994
 1361WAT     H2 5511   0.316   2.280   0.892
 1361WAT    EPW 5512   0.278   2.336   0.947
 1362WAT      O 5513   1.416   3.181   3.871
 1362WAT     H1 5514   1.322   3.167   3.888
 1362WAT     H2 5515   1.419   3.227   3.788
 1362WAT    EPW 5516   1.404   3.185   3.862
 1363WAT      O 5517   2.001   0.397   2.119
 1363WAT     H1 5518   2.031   0.332   2.183
 1363WAT     H2 5519   1.998   0.349   2.036
 1363WAT    EPW 5520   2.005   0.382   2.117
 1364WAT      O 5521   0.845   3.556   1.873
 1364WAT     H1 5522   0.814   3.597   1.954
 1364WAT     H2 5523   0.879   3.628   1.820
 1364WAT    EPW 5524   0.845   3.571   1.876
 1365WAT      O 5525   3.282   0.529   2.298
 1365WAT     H1 5526   3.339   0.453   2.283
 1365WAT     H2 5527   3.316   0.568   2.378
 1365WAT    EPW 5528   3.294   0.524   2.307
 1366WAT      O 5529   2.862   1.534   0.801
 1366WAT     H1 5530   2.798   1.572   0.741
 1366WAT     H2 5531   2.810   1.511   0.879
 1366WAT    EPW 5532   2.847   1.536   0.804
 1367WAT      O 5533   1.749   0.361   0.642
 1367WAT     H1 5534   1.764   0.267   0.628
 1367WAT     H2 5535   1.693   0.388   0.569
 1367WAT    EPW 5536   1.744   0.352   0.631
 1368WAT      O 5537   0.568   1.587   2.373
 1368WAT     H1 5538   0.586   1.681   2.369
 1368WAT     H2 5539   0.654   1.546   2.364
 1368WAT    EPW 5540   0.582   1.594   2.372
 1369WAT      O 5541   3.631   2.467   2.923
 1369WAT     H1 5542   3.716   2.505   2.945
 1369WAT     H2 5543   3.585   2.536   2.875
 1369WAT    EPW 5544   3.636   2.481   2.920
 1370WAT      O 5545   1.982   0.208   2.723
 1370WAT     H1 5546   1.907   0.216   2.664
 1370WAT     H2 5547   1.961   0.131   2.776
 1370WAT    EPW 5548   1.969   0.199   2.722
 1371WAT      O 5549   1.482   1.567   1.447
 1371WAT     H1 5550   1.403   1.620   1.432
 1371WAT     H2 5551   1.526   1.610   1.520
 1371WAT    EPW 5552   1.477   1.580   1.454
 1372WAT      O 5553   1.542   0.958   0.010
 1372WAT     H1 5554   1.495   1.035   0.042
 1372WAT     H2 5555   1.503   0.885   0.059
 1372WAT    EPW 5556   1.530   0.959   0.021
 1373WAT      O 5557   0.811   1.486   2.316
 1373WAT     H1 5558   0.884   1.471   2.256
 1373WAT     H2 5559   0.815   1.412   2.377
 1373WAT    EPW 5560   0.821   1.474   2.316
 1374WAT      O 5561   2.343   1.612   3.046
 1374WAT     H1 5562   2.317   1.524   3.074
 1374WAT     H2 5563   2.265   1.666   3.060
 1374WAT    EPW 5564   2.330   1.608   3.052
 1375WAT      O 5565   0.386   1.184   2.731
 1375WAT     H1 5566   0.332   1.105   2.717
 1375WAT     H2 5567   0.465   1.168   2.680
 1375WAT    EPW 5568   0.389   1.171   2.723
 1376WAT      O 5569   3.256   3.536   2.268
 1376WAT     H1 5570   3.194   3.500   2.204
 1376WAT     H2 5571   3.333   3.479   2.261
 1376WAT    EPW 5572   3.258   3.523   2.259
 1377WAT      O 5573   2.253   0.521   1.864
 1377WAT     H1 5574   2.170   0.519   1.817
 1377WAT     H2 5575   2.228   0.543   1.954
 1377WAT    EPW 5576   2.239   0.523   1.870
 1378WAT      O 5577   0.947   1.807   0.677
 1378WAT     H1 5578   0.965   1.901   0.686
 1378WAT     H2 5579   0.906   1.798   0.591
 1378WAT    EPW 5580   0.944   1.818   0.667
 1379WAT      O 5581   1.094   2.876   1.613
 1379WAT     H1 5582   1.159   2.870   1.683
 1379WAT     H2 5583   1.032   2.943   1.643
 1379WAT    EPW 5584   1.094   2.884   1.626
 1380WAT      O 5585   0.705   3.926   3.756
 1380WAT     H1 5586   0.677   4.011   3.723
 1380WAT     H2 5587   0.795   3.940   3.784
 1380WAT    EPW 5588   0.713   3.939   3.755
 1381WAT      O 5589   1.537   2.326   3.192
 1381WAT     H1 5590   1.468   2.291   3.135
 1381WAT     H2 5591   1.506   2.309   3.281
 1381WAT    EPW 5592   1.524   2.319   3.196
 1382WAT      O 5593   3.268   0.909   3.477
 1382WAT     H1 5594   3.248   0.985   3.422
 1382WAT     H2 5595   3.347   0.934   3.525
 1382WAT    EPW 5596   3.276   0.922   3.476
 1383WAT      O 5597   1.890   3.883   3.566
 1383WAT     H1 5598   1.836   3.822   3.514
 1383WAT     H2 5599   1.979   3.868   3.536
 1383WAT    EPW 5600   1.894   3.873   3.555
 1384WAT      O 5601   1.976   2.225   1.603
 1384WAT     H1 5602   1.902   2.278   1.575
 1384WAT     H2 5603   1.976   2.232   1.698
 1384WAT    EPW 5604   1.966   2.233   1.612
 1385WAT      O 5605   2.136   3.234   3.090
 1385WAT     H1 5606   2.046   3.268   3.084
 1385WAT     H2 5607   2.190   3.313   3.096
 1385WAT    EPW 5608   2.131   3.249   3.090
 1386WAT      O 5609   3.135   2.181   1.092
 1386WAT     H1 5610   3.187   2.169   1.171
 1386WAT     H2 5611   3.059   2.232   1.121
 1386WAT    EPW 5612   3.131   2.186   1.106
 1387WAT      O 5613   3.444   2.113   3.535
 1387WAT     H1 5614   3.395   2.130   3.616
 1387WAT     H2 5615   3.392   2.156   3.467
 1387WAT    EPW 5616   3.431   2.121   3.537
 1388WAT      O 5617   0.350   0.333   0.195
 1388WAT     H1 5618   0.274   0.274   0.190
 1388WAT     H2 5619   0.317   0.411   0.240
 1388WAT    EPW 5620   0.335   0.336   0.200
 1389WAT      O 5621   3.658   1.761   3.145
 1389WAT     H1 5622   3.729   1.703   3.115
 1389WAT     H2 5623   3.578   1.714   3.122
 1389WAT    EPW 5624   3.657   1.747   3.138
 1390WAT      O 5625   1.306   2.666   2.960
 1390WAT     H1 5626   1.276   2.751   2.990
 1390WAT     H2 5627   1.397   2.660   2.989
 1390WAT    EPW 5628   1.314   2.676   2.968
 1391WAT      O 5629   0.105   0.428   2.286
 1391WAT     H1 5630   0.101   0.488   2.211
 1391WAT     H2 5631   0.132   0.483   2.360
 1391WAT    EPW 5632   0.108   0.443   2.286
 1392WAT      O 5633   2.849   4.078   4.036
 1392WAT     H1 5634   2.825   4.081   3.944
 1392WAT     H2 5635   2.943   4.093   4.037
 1392WAT    EPW 5636   2.858   4.081   4.024
 1393WAT      O 5637   1.183   2.110   2.362
 1393WAT     H1 5638   1.201   2.191   2.410
 1393WAT     H2 5639   1.096   2.084   2.392
 1393WAT    EPW 5640   1.174   2.117   2.373
 1394WAT      O 5641   3.554   0.422   4.023
 1394WAT     H1 5642   3.615   0.462   4.084
 1394WAT     H2 5643   3.522   0.343   4.068
 1394WAT    EPW 5644   3.558   0.417   4.037
 1395WAT      O 5645   0.707   2.050   3.112
 1395WAT     H1 5646   0.741   2.095   3.035
 1395WAT     H2 5647   0.622   2.092   3.128
 1395WAT    EPW 5648   0.700   2.062   3.104
 1396WAT      O 5649   0.992   2.034   3.253
 1396WAT     H1 5650   0.932   2.043   3.179
 1396WAT     H2 5651   1.073   2.002   3.214
 1396WAT    EPW 5652   0.995   2.031   3.238
 1397WAT      O 5653   2.828   0.240   0.053
 1397WAT     H1 5654   2.832   0.214   0.145
 1397WAT     H2 5655   2.806   0.159   0.006
 1397WAT    EPW 5656   2.825   0.226   0.059
 1398WAT      O 5657   2.332   3.622   3.661
 1398WAT     H1 5658   2.421   3.588   3.659
 1398WAT     H2 5659   2.319   3.652   3.750
 1398WAT    EPW 5660   2.342   3.621   3.672
 1399WAT      O 5661   2.958   0.881   1.148
 1399WAT     H1 5662   2.981   0.817   1.081
 1399WAT     H2 5663   2.909   0.949   1.101
 1399WAT    EPW 5664   2.954   0.881   1.133
 1400WAT      O 5665   3.599   1.626   2.893
 1400WAT     H1 5666   3.516   1.673   2.893
 1400WAT     H2 5667   3.576   1.537   2.869
 1400WAT    EPW 5668   3.585   1.621   2.890
 1401WAT      O 5669   3.470   1.524   1.591
 1401WAT     H1 5670   3.481   1.438   1.632
 1401WAT     H2 5671   3.394   1.562   1.635
 1401WAT    EPW 5672   3.461   1.517   1.602
 1402WAT      O 5673   3.365   3.414   1.247
 1402WAT     H1 5674   3.312   3.363   1.308
 1402WAT     H2 5675   3.335   3.504   1.259
 1402WAT    EPW 5676   3.354   3.419   1.256
 1403WAT      O 5677   2.124   1.356   3.878
 1403WAT     H1 5678   2.087   1.442   3.861
 1403WAT     H2 5679   2.197   1.348   3.815
 1403WAT    EPW 5680   2.129   1.366   3.867
 1404WAT      O 5681   0.077   1.668   2.017
 1404WAT     H1 5682   0.161   1.710   1.997
 1404WAT     H2 5683   0.020   1.692   1.944
 1404WAT    EPW 5684   0.080   1.677   2.005
 1405WAT      O 5685   3.113   2.483   1.162
 1405WAT     H1 5686   3.059   2.551   1.202
 1405WAT     H2 5687   3.172   2.531   1.103
 1405WAT    EPW 5688   3.114   2.499   1.160
 1406WAT      O 5689   1.632   0.800   1.036
 1406WAT     H1 5690   1.578   0.763   1.105
 1406WAT     H2 5691   1.584   0.877   1.006
 1406WAT    EPW 5692   1.619   0.805   1.041
 1407WAT      O 5693   0.847   3.672   1.146
 1407WAT     H1 5694   0.927   3.673   1.198
 1407WAT     H2 5695   0.828   3.578   1.134
 1407WAT    EPW 5696   0.855   3.659   1.152
 1408WAT      O 5697   3.662   3.156   0.875
 1408WAT     H1 5698   3.734   3.158   0.811
 1408WAT     H2 5699   3.703   3.124   0.955
 1408WAT    EPW 5700   3.677   3.152   0.877
 1409WAT      O 5701   0.357   2.980   2.508
 1409WAT     H1 5702   0.378   2.913   2.442
 1409WAT     H2 5703   0.429   3.042   2.502
 1409WAT    EPW 5704   0.369   2.979   2.498
 1410WAT      O 5705   2.642   0.212   0.995
 1410WAT     H1 5706   2.696   0.134   1.004
 1410WAT     H2 5707   2.616   0.234   1.085
 1410WAT    EPW 5708   2.646   0.205   1.008
 1411WAT      O 5709   1.787   2.850   3.267
 1411WAT     H1 5710   1.723   2.846   3.195
 1411WAT     H2 5711   1.817   2.760   3.276
 1411WAT    EPW 5712   1.782   2.838   3.259
 1412WAT      O 5713   0.470   3.623   3.280
 1412WAT     H1 5714   0.510   3.544   3.244
 1412WAT     H2 5715   0.539   3.663   3.332
 1412WAT    EPW 5716   0.485   3.618   3.282
 1413WAT      O 5717   0.326   3.578   0.688
 1413WAT     H1 5718   0.308   3.669   0.710
 1413WAT     H2 5719   0.359   3.581   0.598
 1413WAT    EPW 5720   0.328   3.590   0.679
 1414WAT      O 5721   0.061   3.043   3.986
 1414WAT     H1 5722   0.026   3.033   3.898
 1414WAT     H2 5723   0.143   3.090   3.975
 1414WAT    EPW 5724   0.067   3.048   3.973
 1415WAT      O 5725   1.963   0.825   3.934
 1415WAT     H1 5726   2.056   0.802   3.940
 1415WAT     H2 5727   1.961   0.900   3.875
 1415WAT    EPW 5728   1.975   0.832   3.927
 1416WAT      O 5729   0.098   2.008   1.785
 1416WAT     H1 5730   0.009   1.999   1.752
 1416WAT     H2 5731   0.093   2.081   1.848
 1416WAT    EPW 5732   0.086   2.017   1.789
 1417WAT      O 5733   0.213   0.695   3.966
 1417WAT     H1 5734   0.248   0.784   3.954
 1417WAT     H2 5735   0.154   0.683   3.891
 1417WAT    EPW 5736   0.210   0.705   3.954
 1418WAT      O 5737   2.563   3.441   3.590
 1418WAT     H1 5738   2.536   3.435   3.499
 1418WAT     H2 5739   2.643   3.494   3.588
 1418WAT    EPW 5740   2.570   3.448   3.578
 1419WAT      O 5741   2.512   3.740   1.629
 1419WAT     H1 5742   2.582   3.801   1.605
 1419WAT     H2 5743   2.467   3.721   1.546
 1419WAT    EPW 5744   2.515   3.746   1.615
 1420WAT      O 5745   0.584   2.010   3.873
 1420WAT     H1 5746   0.650   1.942   3.862
 1420WAT     H2 5747   0.610   2.079   3.812
 1420WAT    EPW 5748   0.596   2.011   3.864
 1421WAT      O 5749   2.134   3.691   2.578
 1421WAT     H1 5750   2.051   3.683   2.625
 1421WAT     H2 5751   2.135   3.615   2.520
 1421WAT    EPW 5752   2.123   3.680   2.576
 1422WAT      O 5753   3.081   3.138   2.206
 1422WAT     H1 5754   3.035   3.190   2.272
 1422WAT     H2 5755   3.026   3.059   2.196
 1422WAT    EPW 5756   3.068   3.134   2.213
 1423WAT      O 5757   0.132   1.123   3.386
 1423WAT     H1 5758   0.073   1.070   3.332
 1423WAT     H2 5759   0.189   1.166   3.322
 1423WAT    EPW 5760   0.132   1.121   3.370
 1424WAT      O 5761   1.913   1.983   3.507
 1424WAT     H1 5762   1.971   2.053   3.477
 1424WAT     H2 5763   1.947   1.904   3.464
 1424WAT    EPW 5764   1.925   1.981   3.497
 1425WAT      O 5765   2.103   3.334   2.583
 1425WAT     H1 5766   2.156   3.312   2.660
 1425WAT     H2 5767   2.117   3.261   2.523
 1425WAT    EPW 5768   2.112   3.322   2.585
 1426WAT      O 5769   2.859   1.816   3.682
 1426WAT     H1 5770   2.907   1.759   3.743
 1426WAT     H2 5771   2.781   1.765   3.657
 1426WAT    EPW 5772   2.855   1.802   3.687
 1427WAT      O 5773   3.264   3.463   0.157
 1427WAT     H1 5774   3.244   3.478   0.065
 1427WAT     H2 5775   3.301   3.375   0.160
 1427WAT    EPW 5776   3.266   3.454   0.145
 1428WAT      O 5777   0.171   3.092   0.638
 1428WAT     H1 5778   0.248   3.092   0.580
 1428WAT     H2 5779   0.115   3.161   0.604
 1428WAT    EPW 5780   0.174   3.101   0.626
 1429WAT      O 5781   2.951   0.112   2.655
 1429WAT     H1 5782   2.897   0.065   2.591
 1429WAT     H2 5783   2.989   0.185   2.605
 1429WAT    EPW 5784   2.949   0.115   2.640
 1430WAT      O 5785   0.785   0.998   3.189
 1430WAT     H1 5786   0.805   1.013   3.282
 1430WAT     H2 5787   0.735   1.075   3.163
 1430WAT    EPW 5788   0.781   1.010   3.198
 1431WAT      O 5789   0.494   3.066   0.105
 1431WAT     H1 5790   0.575   3.093   0.149
 1431WAT     H2 5791   0.470   2.983   0.148
 1431WAT    EPW 5792   0.501   3.059   0.116
 1432WAT      O 5793   0.876   2.427   2.768
 1432WAT     H1 5794   0.851   2.418   2.676
 1432WAT     H2 5795   0.845   2.514   2.793
 1432WAT    EPW 5796   0.869   2.437   2.759
 1433WAT      O 5797   0.417   2.187   1.570
 1433WAT     H1 5798   0.453   2.242   1.501
 1433WAT     H2 5799   0.379   2.112   1.524
 1433WAT    EPW 5800   0.417   2.184   1.555
 1434WAT      O 5801   3.185   1.945   3.821
 1434WAT     H1 5802   3.255   1.906   3.769
 1434WAT     H2 5803   3.119   1.876   3.827
 1434WAT    EPW 5804   3.186   1.930   3.815
 1435WAT      O 5805   1.325   3.695   3.320
 1435WAT     H1 5806   1.362   3.607   3.315
 1435WAT     H2 5807   1.343   3.733   3.234
 1435WAT    EPW 5808   1.332   3.688   3.308
 1436WAT      O 5809   1.608   2.486   0.988
 1436WAT     H1 5810   1.550   2.413   1.011
 1436WAT     H2 5811   1.576   2.560   1.040
 1436WAT    EPW 5812   1.596   2.486   0.998
 1437WAT      O 5813   1.527   0.978   3.105
 1437WAT     H1 5814   1.554   0.945   3.019
 1437WAT     H2 5815   1.450   1.033   3.086
 1437WAT    EPW 5816   1.520   0.981   3.091
 1438WAT      O 5817   2.363   3.241   3.381
 1438WAT     H1 5818   2.371   3.146   3.384
 1438WAT     H2 5819   2.271   3.257   3.358
 1438WAT    EPW 5820   2.352   3.230   3.378
 1439WAT      O 5821   0.230   3.391   2.649
 1439WAT     H1 5822   0.279   3.425   2.574
 1439WAT     H2 5823   0.288   3.406   2.724
 1439WAT    EPW 5824   0.244   3.397   2.649
 1440WAT      O 5825   2.085   1.676   3.757
 1440WAT     H1 5826   2.153   1.701   3.694
 1440WAT     H2 5827   2.060   1.758   3.799
 1440WAT    EPW 5828   2.091   1.690   3.754
 1441WAT      O 5829   3.693   0.677   2.444
 1441WAT     H1 5830   3.738   0.619   2.506
 1441WAT     H2 5831   3.605   0.687   2.480
 1441WAT    EPW 5832   3.687   0.671   2.457
 1442WAT      O 5833   1.455   0.236   2.518
 1442WAT     H1 5834   1.465   0.236   2.614
 1442WAT     H2 5835   1.382   0.295   2.502
 1442WAT    EPW 5836   1.447   0.244   2.529
 1443WAT      O 5837   0.039   0.391   1.546
 1443WAT     H1 5838  -0.008   0.434   1.618
 1443WAT     H2 5839   0.003   0.431   1.467
 1443WAT    EPW 5840   0.028   0.402   1.545
 1444WAT      O 5841   0.293   0.959   2.987
 1444WAT     H1 5842   0.314   1.026   3.053
 1444WAT     H2 5843   0.379   0.927   2.958
 1444WAT    EPW 5844   0.307   0.964   2.992
 1445WAT      O 5845   2.465   1.049   3.276
 1445WAT     H1 5846   2.491   1.040   3.368
 1445WAT     H2 5847   2.371   1.031   3.276
 1445WAT    EPW 5848   2.456   1.045   3.288
 1446WAT      O 5849   1.362   0.692   0.047
 1446WAT     H1 5850   1.351   0.653   0.134
 1446WAT     H2 5851   1.274   0.718   0.021
 1446WAT    EPW 5852   1.349   0.690   0.055
 1447WAT      O 5853   1.811   1.114   4.036
 1447WAT     H1 5854   1.722   1.089   4.061
 1447WAT     H2 5855   1.837   1.180   4.100
 1447WAT    EPW 5856   1.803   1.120   4.047
 1448WAT      O 5857   0.823   1.570   1.298
 1448WAT     H1 5858   0.789   1.637   1.239
 1448WAT     H2 5859   0.777   1.490   1.273
 1448WAT    EPW 5860   0.812   1.568   1.287
 1449WAT      O 5861   0.947   1.914   2.784
 1449WAT     H1 5862   0.852   1.899   2.782
 1449WAT     H2 5863   0.984   1.832   2.816
 1449WAT    EPW 5864   0.939   1.902   2.788
 1450WAT      O 5865   0.008   1.087   1.455
 1450WAT     H1 5866  -0.012   1.092   1.549
 1450WAT     H2 5867   0.017   1.178   1.427
 1450WAT    EPW 5868   0.007   1.100   1.464
 1451WAT      O 5869   2.290   0.194   1.539
 1451WAT     H1 5870   2.210   0.142   1.534
 1451WAT     H2 5871   2.360   0.135   1.511
 1451WAT    EPW 5872   2.289   0.180   1.535
 1452WAT      O 5873   2.148   2.804   3.598
 1452WAT     H1 5874   2.062   2.798   3.639
 1452WAT     H2 5875   2.132   2.780   3.506
 1452WAT    EPW 5876   2.135   2.800   3.591
 1453WAT      O 5877   3.123   2.301   1.527
 1453WAT     H1 5878   3.040   2.291   1.480
 1453WAT     H2 5879   3.188   2.314   1.458
 1453WAT    EPW 5880   3.121   2.302   1.512
 1454WAT      O 5881   1.566   2.289   0.134
 1454WAT     H1 5882   1.477   2.254   0.135
 1454WAT     H2 5883   1.566   2.352   0.062
 1454WAT    EPW 5884   1.554   2.293   0.125
 1455WAT      O 5885   0.040   4.073   2.778
 1455WAT     H1 5886  -0.021   4.124   2.831
 1455WAT     H2 5887   0.089   4.137   2.728
 1455WAT    EPW 5888   0.038   4.088   2.779
 1456WAT      O 5889   3.494   2.945   1.101
 1456WAT     H1 5890   3.448   2.959   1.018
 1456WAT     H2 5891   3.514   2.852   1.102
 1456WAT    EPW 5892   3.491   2.935   1.090
 1457WAT      O 5893   2.429   3.168   3.717
 1457WAT     H1 5894   2.334   3.180   3.720
 1457WAT     H2 5895   2.460   3.235   3.657
 1457WAT    EPW 5896   2.420   3.178   3.710
 1458WAT      O 5897   2.077   1.672   1.522
 1458WAT     H1 5898   2.063   1.734   1.450
 1458WAT     H2 5899   2.031   1.711   1.596
 1458WAT    EPW 5900   2.069   1.686   1.522
 1459WAT      O 5901   2.122   2.469   1.294
 1459WAT     H1 5902   2.135   2.559   1.326
 1459WAT     H2 5903   2.029   2.453   1.306
 1459WAT    EPW 5904   2.112   2.479   1.300
 1460WAT      O 5905   0.721   0.349   2.541
 1460WAT     H1 5906   0.681   0.266   2.569
 1460WAT     H2 5907   0.736   0.339   2.447
 1460WAT    EPW 5908   0.718   0.337   2.532
 1461WAT      O 5909   0.890   0.947   3.467
 1461WAT     H1 5910   0.976   0.967   3.428
 1461WAT     H2 5911   0.907   0.942   3.561
 1461WAT    EPW 5912   0.904   0.949   3.474
 1462WAT      O 5913   3.715   2.324   0.678
 1462WAT     H1 5914   3.757   2.373   0.607
 1462WAT     H2 5915   3.729   2.378   0.756
 1462WAT    EPW 5916   3.723   2.338   0.679
 1463WAT      O 5917   2.688   1.140   1.227
 1463WAT     H1 5918   2.627   1.165   1.296
 1463WAT     H2 5919   2.668   1.047   1.210
 1463WAT    EPW 5920   2.677   1.131   1.234
 1464WAT      O 5921   0.420   3.307   1.896
 1464WAT     H1 5922   0.475   3.350   1.831
 1464WAT     H2 5923   0.479   3.285   1.968
 1464WAT    EPW 5924   0.435   3.310   1.897
 1465WAT      O 5925   1.344   2.021   1.522
 1465WAT     H1 5926   1.332   1.933   1.487
 1465WAT     H2 5927   1.430   2.048   1.489
 1465WAT    EPW 5928   1.353   2.013   1.513
 1466WAT      O 5929   3.308   3.841   1.837
 1466WAT     H1 5930   3.327   3.832   1.930
 1466WAT     H2 5931   3.369   3.782   1.793
 1466WAT    EPW 5932   3.319   3.832   1.843
 1467WAT      O 5933   2.170   3.528   0.796
 1467WAT     H1 5934   2.095   3.482   0.835
 1467WAT     H2 5935   2.134   3.571   0.719
 1467WAT    EPW 5936   2.155   3.528   0.791
 1468WAT      O 5937   1.856   0.341   0.253
 1468WAT     H1 5938   1.869   0.291   0.333
 1468WAT     H2 5939   1.893   0.427   0.273
 1468WAT    EPW 5940   1.862   0.346   0.266
 1469WAT      O 5941   0.586   4.073   0.056
 1469WAT     H1 5942   0.674   4.047   0.031
 1469WAT     H2 5943   0.529   4.034  -0.011
 1469WAT    EPW 5944   0.590   4.064   0.044
 1470WAT      O 5945   2.449   2.649   2.569
 1470WAT     H1 5946   2.398   2.725   2.597
 1470WAT     H2 5947   2.437   2.646   2.474
 1470WAT    EPW 5948   2.441   2.659   2.560
 1471WAT      O 5949   1.806   1.020   1.456
 1471WAT     H1 5950   1.795   1.071   1.376
 1471WAT     H2 5951   1.881   1.061   1.500
 1471WAT    EPW 5952   1.815   1.032   1.451
 1472WAT      O 5953   3.298   3.567   3.954
 1472WAT     H1 5954   3.251   3.651   3.956
 1472WAT     H2 5955   3.390   3.591   3.961
 1472WAT    EPW 5956   3.304   3.582   3.955
 1473WAT      O 5957   1.041   0.454   1.990
 1473WAT     H1 5958   1.024   0.422   2.079
 1473WAT     H2 5959   0.955   0.459   1.949
 1473WAT    EPW 5960   1.027   0.450   1.997
 1474WAT      O 5961   2.575   3.433   0.871
 1474WAT     H1 5962   2.632   3.388   0.809
 1474WAT     H2 5963   2.529   3.363   0.917
 1474WAT    EPW 5964   2.576   3.418   0.869
 1475WAT      O 5965   2.019   2.802   3.986
 1475WAT     H1 5966   2.055   2.821   4.072
 1475WAT     H2 5967   1.956   2.872   3.970
 1475WAT    EPW 5968   2.015   2.814   3.995
 1476WAT      O 5969   2.897   3.550   0.305
 1476WAT     H1 5970   2.960   3.621   0.292
 1476WAT     H2 5971   2.931   3.478   0.252
 1476WAT    EPW 5972   2.910   3.550   0.296
 1477WAT      O 5973   3.179   0.715   2.128
 1477WAT     H1 5974   3.234   0.715   2.049
 1477WAT     H2 5975   3.202   0.635   2.174
 1477WAT    EPW 5976   3.190   0.705   2.124
 1478WAT      O 5977   3.129   2.830   1.217
 1478WAT     H1 5978   3.047   2.782   1.228
 1478WAT     H2 5979   3.121   2.870   1.131
 1478WAT    EPW 5980   3.117   2.829   1.207
 1479WAT      O 5981   3.393   3.026   4.069
 1479WAT     H1 5982   3.444   2.946   4.082
 1479WAT     H2 5983   3.382   3.032   3.975
 1479WAT    EPW 5984   3.398   3.016   4.059
 1480WAT      O 5985   2.854   2.162   3.206
 1480WAT     H1 5986   2.759   2.159   3.194
 1480WAT     H2 5987   2.889   2.124   3.125
 1480WAT    EPW 5988   2.846   2.156   3.194
 1481WAT      O 5989   2.103   0.556   2.660
 1481WAT     H1 5990   2.122   0.497   2.733
 1481WAT     H2 5991   2.150   0.518   2.586
 1481WAT    EPW 5992   2.112   0.543   2.660
 1482WAT      O 5993   3.529   3.758   1.670
 1482WAT     H1 5994   3.576   3.799   1.597
 1482WAT     H2 5995   3.557   3.666   1.667
 1482WAT    EPW 5996   3.539   3.751   1.660
 1483WAT      O 5997   0.443   2.142   0.857
 1483WAT     H1 5998   0.501   2.069   0.835
 1483WAT     H2 5999   0.380   2.105   0.918
 1483WAT    EPW 6000   0.443   2.128   0.862
 1484WAT      O 6001   2.530   0.559   1.822
 1484WAT     H1 6002   2.553   0.470   1.796
 1484WAT     H2 6003   2.441   0.552   1.856
 1484WAT    EPW 6004   2.521   0.546   1.823
 1485WAT      O 6005   1.777   0.810   0.095
 1485WAT     H1 6006   1.690   0.834   0.063
 1485WAT     H2 6007   1.837   0.847   0.030
 1485WAT    EPW 6008   1.774   0.818   0.082
 1486WAT      O 6009   3.235   2.008   1.329
 1486WAT     H1 6010   3.314   1.976   1.284
 1486WAT     H2 6011   3.182   1.929   1.344
 1486WAT    EPW 6012   3.239   1.993   1.325
 1487WAT      O 6013   0.589   3.573   0.827
 1487WAT     H1 6014   0.656   3.569   0.759
 1487WAT     H2 6015   0.511   3.605   0.782
 1487WAT    EPW 6016   0.587   3.577   0.812
 1488WAT      O 6017   0.296   3.846   3.306
 1488WAT     H1 6018   0.342   3.924   3.338
 1488WAT     H2 6019   0.364   3.778   3.304
 1488WAT    EPW 6020   0.311   3.847   3.310
 1489WAT      O 6021   1.857   2.163   0.518
 1489WAT     H1 6022   1.842   2.243   0.568
 1489WAT     H2 6023   1.877   2.097   0.584
 1489WAT    EPW 6024   1.858   2.165   0.533
 1490WAT      O 6025   0.191   1.088   2.385
 1490WAT     H1 6026   0.204   1.168   2.334
 1490WAT     H2 6027   0.108   1.102   2.431
 1490WAT    EPW 6028   0.182   1.100   2.385
 1491WAT      O 6029   2.592   2.373   3.554
 1491WAT     H1 6030   2.557   2.461   3.546
 1491WAT     H2 6031   2.677   2.376   3.510
 1491WAT    EPW 6032   2.599   2.385   3.547
 1492WAT      O 6033   0.594   3.485   1.710
 1492WAT     H1 6034   0.608   3.444   1.625
 1492WAT     H2 6035   0.682   3.510   1.739
 1492WAT    EPW 6036   0.608   3.483   1.703
 1493WAT      O 6037   1.274   2.063   0.564
 1493WAT     H1 6038   1.318   1.997   0.617
 1493WAT     H2 6039   1.344   2.107   0.516
 1493WAT    EPW 6040   1.289   2.060   0.564
 1494WAT      O 6041   2.433   4.083   1.319
 1494WAT     H1 6042   2.527   4.067   1.312
 1494WAT     H2 6043   2.395   3.995   1.325
 1494WAT    EPW 6044   2.440   4.069   1.319
 1495WAT      O 6045   0.733   0.279   3.382
 1495WAT     H1 6046   0.798   0.298   3.449
 1495WAT     H2 6047   0.690   0.363   3.366
 1495WAT    EPW 6048   0.736   0.292   3.389
 1496WAT      O 6049   0.186   3.934   1.011
 1496WAT     H1 6050   0.159   3.940   1.103
 1496WAT     H2 6051   0.282   3.940   1.014
 1496WAT    EPW 6052   0.196   3.936   1.023
 1497WAT      O 6053   2.174   1.775   0.063
 1497WAT     H1 6054   2.190   1.764  -0.030
 1497WAT     H2 6055   2.104   1.841   0.067
 1497WAT    EPW 6056   2.167   1.783   0.051
 1498WAT      O 6057   2.319   1.030   1.922
 1498WAT     H1 6058   2.296   0.994   2.008
 1498WAT     H2 6059   2.379   0.965   1.885
 1498WAT    EPW 6060   2.324   1.016   1.929
 1499WAT      O 6061   0.081   1.041   1.138
 1499WAT     H1 6062   0.088   1.013   1.229
 1499WAT     H2 6063   0.158   1.003   1.095
 1499WAT    EPW 6064   0.092   1.032   1.144
 1500WAT      O 6065   0.731   2.836   0.285
 1500WAT     H1 6066   0.748   2.842   0.191
 1500WAT     H2 6067   0.651   2.785   0.292
 1500WAT    EPW 6068   0.722   2.830   0.273
 1501WAT      O 6069   3.667   3.413   4.023
 1501WAT     H1 6070   3.655   3.347   4.091
 1501WAT     H2 6071   3.754   3.396   3.988
 1501WAT    EPW 6072   3.677   3.402   4.027
 1502WAT      O 6073   2.329   0.022   2.790
 1502WAT     H1 6074   2.297  -0.066   2.772
 1502WAT     H2 6075   2.251   0.073   2.808
 1502WAT    EPW 6076   2.315   0.017   2.790
 1503WAT      O 6077   2.568   3.729   1.210
 1503WAT     H1 6078   2.623   3.651   1.203
 1503WAT     H2 6079   2.563   3.763   1.120
 1503WAT    EPW 6080   2.574   3.723   1.197
 1504WAT      O 6081   0.867   3.055   1.665
 1504WAT     H1 6082   0.790   3.029   1.716
 1504WAT     H2 6083   0.875   3.149   1.679
 1504WAT    EPW 6084   0.858   3.064   1.674
 1505WAT      O 6085   3.364   0.166   1.897
 1505WAT     H1 6086   3.442   0.113   1.912
 1505WAT     H2 6087   3.310   0.112   1.840
 1505WAT    EPW 6088   3.367   0.152   1.891
 1506WAT      O 6089   1.737   2.160   1.223
 1506WAT     H1 6090   1.673   2.202   1.164
 1506WAT     H2 6091   1.776   2.091   1.169
 1506WAT    EPW 6092   1.734   2.157   1.208
 1507WAT      O 6093   3.205   3.822   0.886
 1507WAT     H1 6094   3.224   3.728   0.893
 1507WAT     H2 6095   3.282   3.859   0.843
 1507WAT    EPW 6096   3.218   3.815   0.881
 1508WAT      O 6097   3.641   3.497   1.689
 1508WAT     H1 6098   3.638   3.463   1.600
 1508WAT     H2 6099   3.563   3.463   1.732
 1508WAT    EPW 6100   3.630   3.488   1.683
 1509WAT      O 6101   1.856   2.406   1.324
 1509WAT     H1 6102   1.807   2.425   1.404
 1509WAT     H2 6103   1.810   2.331   1.285
 1509WAT    EPW 6104   1.843   2.398   1.329
 1510WAT      O 6105   3.143   0.084   4.037
 1510WAT     H1 6106   3.103   0.161   3.996
 1510WAT     H2 6107   3.216   0.062   3.979
 1510WAT    EPW 6108   3.147   0.091   4.024
 1511WAT      O 6109   1.236   2.972   2.456
 1511WAT     H1 6110   1.325   2.995   2.427
 1511WAT     H2 6111   1.195   2.933   2.378
 1511WAT    EPW 6112   1.243   2.970   2.442
 1512WAT      O 6113   0.121   0.777   0.211
 1512WAT     H1 6114   0.159   0.811   0.131
 1512WAT     H2 6115   0.186   0.716   0.246
 1512WAT    EPW 6116   0.134   0.773   0.205
 1513WAT      O 6117   3.304   2.778   2.956
 1513WAT     H1 6118   3.241   2.718   2.997
 1513WAT     H2 6119   3.374   2.787   3.021
 1513WAT    EPW 6120   3.305   2.771   2.970
 1514WAT      O 6121   2.352   1.407   1.945
 1514WAT     H1 6122   2.263   1.412   1.981
 1514WAT     H2 6123   2.342   1.356   1.865
 1514WAT    EPW 6124   2.339   1.401   1.939
 1515WAT      O 6125   2.496   2.593   1.579
 1515WAT     H1 6126   2.548   2.522   1.617
 1515WAT     H2 6127   2.413   2.552   1.556
 1515WAT    EPW 6128   2.492   2.578   1.581
 1516WAT      O 6129   1.892   4.038   4.032
 1516WAT     H1 6130   1.820   4.046   4.095
 1516WAT     H2 6131   1.918   4.128   4.013
 1516WAT    EPW 6132   1.886   4.051   4.038
 1517WAT      O 6133   1.145   2.084   2.875
 1517WAT     H1 6134   1.106   2.165   2.907
 1517WAT     H2 6135   1.075   2.039   2.829
 1517WAT    EPW 6136   1.131   2.089   2.873
 1518WAT      O 6137   2.155   0.828   0.214
 1518WAT     H1 6138   2.150   0.863   0.303
 1518WAT     H2 6139   2.083   0.766   0.209
 1518WAT    EPW 6140   2.145   0.825   0.225
 1519WAT      O 6141   3.702   0.221   0.827
 1519WAT     H1 6142   3.655   0.204   0.745
 1519WAT     H2 6143   3.634   0.220   0.894
 1519WAT    EPW 6144   3.687   0.218   0.825
 1520WAT      O 6145   1.353   2.381   3.871
 1520WAT     H1 6146   1.429   2.424   3.911
 1520WAT     H2 6147   1.308   2.339   3.944
 1520WAT    EPW 6148   1.357   2.381   3.886
 1521WAT      O 6149   2.944   1.212   2.257
 1521WAT     H1 6150   2.863   1.164   2.276
 1521WAT     H2 6151   3.004   1.145   2.224
 1521WAT    EPW 6152   2.941   1.197   2.256
 1522WAT      O 6153   3.373   0.307   3.313
 1522WAT     H1 6154   3.344   0.243   3.249
 1522WAT     H2 6155   3.460   0.279   3.339
 1522WAT    EPW 6156   3.380   0.295   3.308
 1523WAT      O 6157   3.686   0.977   0.281
 1523WAT     H1 6158   3.706   1.058   0.234
 1523WAT     H2 6159   3.757   0.917   0.257
 1523WAT    EPW 6160   3.698   0.979   0.271
 1524WAT      O 6161   2.992   2.527   1.946
 1524WAT     H1 6162   2.963   2.565   2.030
 1524WAT     H2 6163   3.081   2.496   1.963
 1524WAT    EPW 6164   3.000   2.528   1.959
 1525WAT      O 6165   3.711   1.145   2.619
 1525WAT     H1 6166   3.743   1.091   2.691
 1525WAT     H2 6167   3.757   1.228   2.629
 1525WAT    EPW 6168   3.721   1.149   2.630
 1526WAT      O 6169   0.458   2.759   1.294
 1526WAT     H1 6170   0.487   2.848   1.312
 1526WAT     H2 6171   0.395   2.768   1.222
 1526WAT    EPW 6172   0.453   2.772   1.287
 1527WAT      O 6173   0.515   2.771   2.057
 1527WAT     H1 6174   0.434   2.791   2.011
 1527WAT     H2 6175   0.573   2.844   2.034
 1527WAT    EPW 6176   0.512   2.784   2.048
 1528WAT      O 6177   2.784   1.649   2.568
 1528WAT     H1 6178   2.784   1.714   2.638
 1528WAT     H2 6179   2.696   1.652   2.532
 1528WAT    EPW 6180   2.773   1.658   2.572
 1529WAT      O 6181   2.315   2.535   0.145
 1529WAT     H1 6182   2.240   2.585   0.114
 1529WAT     H2 6183   2.383   2.600   0.160
 1529WAT    EPW 6184   2.314   2.550   0.143
 1530WAT      O 6185   0.037   2.885   0.483
 1530WAT     H1 6186   0.097   2.828   0.435
 1530WAT     H2 6187   0.094   2.941   0.536
 1530WAT    EPW 6188   0.053   2.885   0.484
 1531WAT      O 6189   1.842   1.832   1.684
 1531WAT     H1 6190   1.832   1.899   1.751
 1531WAT     H2 6191   1.759   1.785   1.683
 1531WAT    EPW 6192   1.830   1.835   1.692
 1532WAT      O 6193   2.351   1.982   3.995
 1532WAT     H1 6194   2.351   1.889   3.972
 1532WAT     H2 6195   2.390   2.026   3.919
 1532WAT    EPW 6196   2.356   1.975   3.982
 1533WAT      O 6197   1.293   0.818   0.921
 1533WAT     H1 6198   1.349   0.752   0.880
 1533WAT     H2 6199   1.352   0.891   0.939
 1533WAT    EPW 6200   1.308   0.819   0.918
 1534WAT      O 6201   0.185   3.750   2.729
 1534WAT     H1 6202   0.277   3.728   2.745
 1534WAT     H2 6203   0.163   3.707   2.647
 1534WAT    EPW 6204   0.194   3.742   2.720
 1535WAT      O 6205   0.251   3.992   0.383
 1535WAT     H1 6206   0.225   4.078   0.415
 1535WAT     H2 6207   0.182   3.932   0.413
 1535WAT    EPW 6208   0.238   3.995   0.391
 1536WAT      O 6209   3.167   2.748   2.229
 1536WAT     H1 6210   3.089   2.788   2.266
 1536WAT     H2 6211   3.150   2.744   2.135
 1536WAT    EPW 6212   3.155   2.752   2.222
 1537WAT      O 6213   0.686   2.078   1.911
 1537WAT     H1 6214   0.746   2.139   1.870
 1537WAT     H2 6215   0.602   2.094   1.868
 1537WAT    EPW 6216   0.683   2.088   1.900
 1538WAT      O 6217   0.325   3.969   2.604
 1538WAT     H1 6218   0.395   4.025   2.636
 1538WAT     H2 6219   0.273   3.948   2.681
 1538WAT    EPW 6220   0.327   3.973   2.618
 1539WAT      O 6221   2.176   0.881   2.941
 1539WAT     H1 6222   2.096   0.834   2.915
 1539WAT     H2 6223   2.241   0.811   2.951
 1539WAT    EPW 6224   2.174   0.865   2.939
 1540WAT      O 6225   2.978   1.283   4.066
 1540WAT     H1 6226   3.018   1.271   4.152
 1540WAT     H2 6227   3.049   1.317   4.011
 1540WAT    EPW 6228   2.993   1.286   4.070
 1541WAT      O 6229   1.362   0.541   3.894
 1541WAT     H1 6230   1.367   0.603   3.967
 1541WAT     H2 6231   1.378   0.594   3.816
 1541WAT    EPW 6232   1.365   0.556   3.893
 1542WAT      O 6233   0.206   1.404   3.559
 1542WAT     H1 6234   0.247   1.455   3.630
 1542WAT     H2 6235   0.120   1.444   3.547
 1542WAT    EPW 6236   0.200   1.416   3.567
 1543WAT      O 6237   1.471   1.112   1.428
 1543WAT     H1 6238   1.396   1.171   1.441
 1543WAT     H2 6239   1.547   1.164   1.453
 1543WAT    EPW 6240   1.471   1.127   1.433
 1544WAT      O 6241   0.693   2.677   0.681
 1544WAT     H1 6242   0.780   2.644   0.657
 1544WAT     H2 6243   0.698   2.771   0.662
 1544WAT    EPW 6244   0.705   2.685   0.675
 1545WAT      O 6245   2.511   1.538   0.322
 1545WAT     H1 6246   2.539   1.471   0.259
 1545WAT     H2 6247   2.501   1.617   0.270
 1545WAT    EPW 6248   2.513   1.539   0.307
 1546WAT      O 6249   3.009   2.573   0.662
 1546WAT     H1 6250   2.976   2.663   0.660
 1546WAT     H2 6251   2.931   2.519   0.669
 1546WAT    EPW 6252   2.995   2.578   0.662
 1547WAT      O 6253   1.136   1.719   2.105
 1547WAT     H1 6254   1.221   1.679   2.123
 1547WAT     H2 6255   1.074   1.646   2.109
 1547WAT    EPW 6256   1.139   1.704   2.108
 1548WAT      O 6257   3.347   3.442   2.890
 1548WAT     H1 6258   3.264   3.469   2.849
 1548WAT     H2 6259   3.335   3.349   2.909
 1548WAT    EPW 6260   3.334   3.433   2.887
 1549WAT      O 6261   3.703   3.669   0.704
 1549WAT     H1 6262   3.760   3.736   0.665
 1549WAT     H2 6263   3.641   3.719   0.756
 1549WAT    EPW 6264   3.702   3.685   0.705
 1550WAT      O 6265   2.716   0.587   0.067
 1550WAT     H1 6266   2.677   0.632   0.142
 1550WAT     H2 6267   2.783   0.531   0.105
 1550WAT    EPW 6268   2.720   0.586   0.082
 1551WAT      O 6269   1.524   2.609   3.168
 1551WAT     H1 6270   1.530   2.514   3.178
 1551WAT     H2 6271   1.581   2.629   3.094
 1551WAT    EPW 6272   1.532   2.599   3.160
 1552WAT      O 6273   0.953   0.416   2.711
 1552WAT     H1 6274   0.912   0.468   2.780
 1552WAT     H2 6275   0.884   0.403   2.646
 1552WAT    EPW 6276   0.939   0.421   2.711
 1553WAT      O 6277   3.238   3.326   1.477
 1553WAT     H1 6278   3.192   3.406   1.456
 1553WAT     H2 6279   3.178   3.256   1.451
 1553WAT    EPW 6280   3.224   3.327   1.471
 1554WAT      O 6281   1.251   3.731   2.031
 1554WAT     H1 6282   1.204   3.661   1.986
 1554WAT     H2 6283   1.286   3.689   2.110
 1554WAT    EPW 6284   1.249   3.716   2.036
 1555WAT      O 6285   2.088   3.362   1.565
 1555WAT     H1 6286   2.086   3.343   1.659
 1555WAT     H2 6287   2.046   3.286   1.525
 1555WAT    EPW 6288   2.082   3.349   1.572
 1556WAT      O 6289   3.526   0.161   1.589
 1556WAT     H1 6290   3.448   0.149   1.535
 1556WAT     H2 6291   3.505   0.236   1.645
 1556WAT    EPW 6292   3.513   0.170   1.589
 1557WAT      O 6293   0.185   3.107   2.935
 1557WAT     H1 6294   0.125   3.182   2.939
 1557WAT     H2 6295   0.134   3.038   2.894
 1557WAT    EPW 6296   0.171   3.108   2.931
 1558WAT      O 6297   3.194   3.435   3.737
 1558WAT     H1 6298   3.231   3.486   3.809
 1558WAT     H2 6299   3.262   3.371   3.715
 1558WAT    EPW 6300   3.208   3.433   3.744
 1559WAT      O 6301   2.297   1.647   1.231
 1559WAT     H1 6302   2.225   1.591   1.262
 1559WAT     H2 6303   2.272   1.735   1.256
 1559WAT    EPW 6304   2.284   1.651   1.238
 1560WAT      O 6305   3.668   2.913   2.851
 1560WAT     H1 6306   3.724   2.848   2.894
 1560WAT     H2 6307   3.680   2.897   2.758
 1560WAT    EPW 6308   3.677   2.902   2.844
 1561WAT      O 6309   2.756   1.422   2.153
 1561WAT     H1 6310   2.736   1.515   2.164
 1561WAT     H2 6311   2.802   1.398   2.234
 1561WAT    EPW 6312   2.760   1.431   2.165
 1562WAT      O 6313   2.154   0.302   0.458
 1562WAT     H1 6314   2.239   0.263   0.477
 1562WAT     H2 6315   2.172   0.396   0.452
 1562WAT    EPW 6316   2.168   0.309   0.460
 1563WAT      O 6317   0.342   1.630   0.720
 1563WAT     H1 6318   0.423   1.623   0.669
 1563WAT     H2 6319   0.370   1.623   0.811
 1563WAT    EPW 6320   0.356   1.628   0.725
 1564WAT      O 6321   2.819   2.092   4.003
 1564WAT     H1 6322   2.759   2.153   3.960
 1564WAT     H2 6323   2.902   2.140   4.008
 1564WAT    EPW 6324   2.822   2.106   3.998
 1565WAT      O 6325   0.386   3.277   3.117
 1565WAT     H1 6326   0.370   3.194   3.072
 1565WAT     H2 6327   0.401   3.253   3.209
 1565WAT    EPW 6328   0.386   3.263   3.123
 1566WAT      O 6329   0.493   0.075   0.728
 1566WAT     H1 6330   0.522   0.114   0.646
 1566WAT     H2 6331   0.542   0.122   0.796
 1566WAT    EPW 6332   0.503   0.086   0.726
 1567WAT      O 6333   0.855   0.716   1.125
 1567WAT     H1 6334   0.930   0.775   1.119
 1567WAT     H2 6335   0.856   0.683   1.215
 1567WAT    EPW 6336   0.865   0.719   1.136
 1568WAT      O 6337   3.169   1.070   2.643
 1568WAT     H1 6338   3.140   1.096   2.556
 1568WAT     H2 6339   3.262   1.051   2.634
 1568WAT    EPW 6340   3.177   1.071   2.631
 1569WAT      O 6341   1.362   3.910   3.973
 1569WAT     H1 6342   1.368   3.826   3.928
 1569WAT     H2 6343   1.380   3.975   3.905
 1569WAT    EPW 6344   1.365   3.907   3.958
 1570WAT      O 6345   0.261   0.070   1.311
 1570WAT     H1 6346   0.208   0.073   1.390
 1570WAT     H2 6347   0.276  -0.024   1.296
 1570WAT    EPW 6348   0.256   0.058   1.319
 1571WAT      O 6349   0.588   1.576   0.541
 1571WAT     H1 6350   0.608   1.522   0.618
 1571WAT     H2 6351   0.566   1.513   0.472
 1571WAT    EPW 6352   0.588   1.560   0.542
 1572WAT      O 6353   3.631   2.311   0.163
 1572WAT     H1 6354   3.704   2.328   0.222
 1572WAT     H2 6355   3.630   2.387   0.104
 1572WAT    EPW 6356   3.640   2.323   0.163
 1573WAT      O 6357   0.595   3.217   2.181
 1573WAT     H1 6358   0.584   3.155   2.253
 1573WAT     H2 6359   0.661   3.279   2.213
 1573WAT    EPW 6360   0.603   3.217   2.195
 1574WAT      O 6361   3.140   1.264   0.254
 1574WAT     H1 6362   3.194   1.186   0.262
 1574WAT     H2 6363   3.121   1.290   0.344
 1574WAT    EPW 6364   3.144   1.257   0.267
 1575WAT      O 6365   1.939   0.635   0.284
 1575WAT     H1 6366   1.875   0.693   0.243
 1575WAT     H2 6367   1.929   0.651   0.378
 1575WAT    EPW 6368   1.929   0.645   0.291
 1576WAT      O 6369   0.381   0.903   2.503
 1576WAT     H1 6370   0.298   0.933   2.465
 1576WAT     H2 6371   0.398   0.819   2.460
 1576WAT    EPW 6372   0.372   0.896   2.493
 1577WAT      O 6373   0.259   3.314   0.863
 1577WAT     H1 6374   0.236   3.232   0.908
 1577WAT     H2 6375   0.313   3.286   0.790
 1577WAT    EPW 6376   0.263   3.299   0.859
 1578WAT      O 6377   0.090   2.306   3.202
 1578WAT     H1 6378   0.145   2.255   3.143
 1578WAT     H2 6379   0.120   2.282   3.290
 1578WAT    EPW 6380   0.101   2.296   3.206
 1579WAT      O 6381   2.556   2.883   0.901
 1579WAT     H1 6382   2.499   2.954   0.872
 1579WAT     H2 6383   2.632   2.927   0.938
 1579WAT    EPW 6384   2.558   2.898   0.902
 1580WAT      O 6385   1.976   3.381   0.950
 1580WAT     H1 6386   1.898   3.425   0.982
 1580WAT     H2 6387   2.030   3.367   1.028
 1580WAT    EPW 6388   1.973   3.385   0.964
 1581WAT      O 6389   1.438   0.904   3.442
 1581WAT     H1 6390   1.348   0.914   3.412
 1581WAT     H2 6391   1.432   0.902   3.538
 1581WAT    EPW 6392   1.426   0.905   3.451
 1582WAT      O 6393   1.380   2.190   0.850
 1582WAT     H1 6394   1.336   2.124   0.903
 1582WAT     H2 6395   1.472   2.182   0.871
 1582WAT    EPW 6396   1.386   2.180   0.860
 1583WAT      O 6397   2.555   2.136   3.181
 1583WAT     H1 6398   2.544   2.110   3.272
 1583WAT     H2 6399   2.468   2.124   3.142
 1583WAT    EPW 6400   2.542   2.131   3.187
 1584WAT      O 6401   0.098   2.106   0.025
 1584WAT     H1 6402   0.003   2.093   0.032
 1584WAT     H2 6403   0.136   2.023   0.055
 1584WAT    EPW 6404   0.090   2.093   0.030
 1585WAT      O 6405   2.792   3.884   0.868
 1585WAT     H1 6406   2.822   3.955   0.925
 1585WAT     H2 6407   2.778   3.810   0.927
 1585WAT    EPW 6408   2.794   3.884   0.883
 1586WAT      O 6409   2.652   0.563   2.364
 1586WAT     H1 6410   2.642   0.645   2.412
 1586WAT     H2 6411   2.719   0.581   2.298
 1586WAT    EPW 6412   2.659   0.576   2.362
 1587WAT      O 6413   3.639   0.258   2.982
 1587WAT     H1 6414   3.581   0.331   3.006
 1587WAT     H2 6415   3.715   0.269   3.039
 1587WAT    EPW 6416   3.641   0.269   2.993
 1588WAT      O 6417   3.606   3.118   0.414
 1588WAT     H1 6418   3.658   3.040   0.430
 1588WAT     H2 6419   3.528   3.107   0.468
 1588WAT    EPW 6420   3.602   3.107   0.423
 1589WAT      O 6421   3.241   2.017   0.842
 1589WAT     H1 6422   3.194   2.040   0.923
 1589WAT     H2 6423   3.241   1.922   0.840
 1589WAT    EPW 6424   3.235   2.008   0.853
 1590WAT      O 6425   2.192   2.000   0.586
 1590WAT     H1 6426   2.262   1.936   0.572
 1590WAT     H2 6427   2.236   2.076   0.622
 1590WAT    EPW 6428   2.207   2.001   0.589
 1591WAT      O 6429   0.101   2.850   2.165
 1591WAT     H1 6430   0.085   2.944   2.159
 1591WAT     H2 6431   0.015   2.812   2.180
 1591WAT    EPW 6432   0.088   2.857   2.166
 1592WAT      O 6433   2.970   2.812   3.909
 1592WAT     H1 6434   2.923   2.810   3.993
 1592WAT     H2 6435   2.902   2.806   3.843
 1592WAT    EPW 6436   2.955   2.811   3.912
 1593WAT      O 6437   0.348   1.878   3.767
 1593WAT     H1 6438   0.342   1.973   3.772
 1593WAT     H2 6439   0.439   1.859   3.790
 1593WAT    EPW 6440   0.360   1.888   3.771
 1594WAT      O 6441   2.420   2.012   2.268
 1594WAT     H1 6442   2.373   1.981   2.346
 1594WAT     H2 6443   2.367   1.982   2.194
 1594WAT    EPW 6444   2.406   2.004   2.269
 1595WAT      O 6445   0.544   0.617   2.529
 1595WAT     H1 6446   0.593   0.670   2.593
 1595WAT     H2 6447   0.595   0.537   2.520
 1595WAT    EPW 6448   0.557   0.614   2.536
 1596WAT      O 6449   1.636   2.093   1.541
 1596WAT     H1 6450   1.677   2.075   1.626
 1596WAT     H2 6451   1.635   2.188   1.534
 1596WAT    EPW 6452   1.641   2.103   1.551
 1597WAT      O 6453   3.451   2.782   2.171
 1597WAT     H1 6454   3.474   2.707   2.116
 1597WAT     H2 6455   3.355   2.779   2.177
 1597WAT    EPW 6456   3.441   2.772   2.165
 1598WAT      O 6457   3.022   1.322   3.030
 1598WAT     H1 6458   3.035   1.228   3.022
 1598WAT     H2 6459   3.029   1.340   3.124
 1598WAT    EPW 6460   3.025   1.312   3.041
 1599WAT      O 6461   1.500   3.904   1.542
 1599WAT     H1 6462   1.491   3.868   1.631
 1599WAT     H2 6463   1.413   3.894   1.504
 1599WAT    EPW 6464   1.487   3.898   1.549
 1600WAT      O 6465   3.716   0.586   0.573
 1600WAT     H1 6466   3.659   0.515   0.600
 1600WAT     H2 6467   3.796   0.543   0.544
 1600WAT    EPW 6468   3.719   0.571   0.573
 1601WAT      O 6469   1.126   3.338   2.765
 1601WAT     H1 6470   1.104   3.286   2.688
 1601WAT     H2 6471   1.095   3.426   2.745
 1601WAT    EPW 6472   1.119   3.343   2.753
 1602WAT      O 6473   2.078   3.258   3.424
 1602WAT     H1 6474   1.983   3.271   3.418
 1602WAT     H2 6475   2.105   3.311   3.499
 1602WAT    EPW 6476   2.069   3.267   3.433
 1603WAT      O 6477   0.615   1.864   3.442
 1603WAT     H1 6478   0.589   1.838   3.354
 1603WAT     H2 6479   0.555   1.935   3.465
 1603WAT    EPW 6480   0.604   1.870   3.434
 1604WAT      O 6481   1.845   3.135   0.875
 1604WAT     H1 6482   1.821   3.106   0.964
 1604WAT     H2 6483   1.887   3.220   0.888
 1604WAT    EPW 6484   1.847   3.142   0.889
 1605WAT      O 6485   3.315   2.245   3.051
 1605WAT     H1 6486   3.408   2.221   3.060
 1605WAT     H2 6487   3.309   2.330   3.093
 1605WAT    EPW 6488   3.327   2.253   3.058
 1606WAT      O 6489   2.348   1.918   0.900
 1606WAT     H1 6490   2.333   1.827   0.874
 1606WAT     H2 6491   2.418   1.947   0.842
 1606WAT    EPW 6492   2.355   1.909   0.889
 1607WAT      O 6493   2.713   2.821   2.447
 1607WAT     H1 6494   2.761   2.883   2.502
 1607WAT     H2 6495   2.632   2.804   2.495
 1607WAT    EPW 6496   2.709   2.827   2.461
 1608WAT      O 6497   0.964   2.610   0.619
 1608WAT     H1 6498   1.036   2.547   0.612
 1608WAT     H2 6499   0.997   2.676   0.680
 1608WAT    EPW 6500   0.978   2.610   0.626
 1609WAT      O 6501   3.495   1.038   0.629
 1609WAT     H1 6502   3.499   1.082   0.714
 1609WAT     H2 6503   3.586   1.015   0.610
 1609WAT    EPW 6504   3.507   1.041   0.638
 1610WAT      O 6505   3.018   0.431   0.710
 1610WAT     H1 6506   2.948   0.421   0.774
 1610WAT     H2 6507   3.005   0.519   0.675
 1610WAT    EPW 6508   3.007   0.441   0.714
 1611WAT      O 6509   2.824   3.689   3.039
 1611WAT     H1 6510   2.862   3.606   3.065
 1611WAT     H2 6511   2.786   3.671   2.953
 1611WAT    EPW 6512   2.824   3.676   3.031
 1612WAT      O 6513   2.530   0.491   3.856
 1612WAT     H1 6514   2.503   0.483   3.947
 1612WAT     H2 6515   2.511   0.582   3.832
 1612WAT    EPW 6516   2.524   0.502   3.865
 1613WAT      O 6517   2.524   0.518   0.298
 1613WAT     H1 6518   2.596   0.488   0.354
 1613WAT     H2 6519   2.453   0.538   0.358
 1613WAT    EPW 6520   2.524   0.516   0.313
 1614WAT      O 6521   1.045   2.753   2.740
 1614WAT     H1 6522   1.134   2.784   2.756
 1614WAT     H2 6523   0.999   2.830   2.708
 1614WAT    EPW 6524   1.051   2.768   2.738
 1615WAT      O 6525   2.881   0.110   0.290
 1615WAT     H1 6526   2.788   0.088   0.298
 1615WAT     H2 6527   2.909   0.132   0.378
 1615WAT    EPW 6528   2.873   0.110   0.302
 1616WAT      O 6529   3.384   1.606   0.647
 1616WAT     H1 6530   3.397   1.615   0.553
 1616WAT     H2 6531   3.302   1.556   0.655
 1616WAT    EPW 6532   3.375   1.600   0.636
 1617WAT      O 6533   0.408   2.211   1.245
 1617WAT     H1 6534   0.343   2.183   1.181
 1617WAT     H2 6535   0.443   2.293   1.208
 1617WAT    EPW 6536   0.404   2.218   1.231
 1618WAT      O 6537   3.463   0.486   0.704
 1618WAT     H1 6538   3.404   0.415   0.729
 1618WAT     H2 6539   3.417   0.533   0.635
 1618WAT    EPW 6540   3.449   0.482   0.698
 1619WAT      O 6541   1.297   2.992   1.434
 1619WAT     H1 6542   1.365   2.933   1.469
 1619WAT     H2 6543   1.220   2.975   1.489
 1619WAT    EPW 6544   1.296   2.982   1.446
 1620WAT      O 6545   1.163   1.296   0.140
 1620WAT     H1 6546   1.133   1.219   0.092
 1620WAT     H2 6547   1.253   1.310   0.111
 1620WAT    EPW 6548   1.171   1.288   0.130
 1621WAT      O 6549   2.039   3.267   1.189
 1621WAT     H1 6550   1.978   3.336   1.214
 1621WAT     H2 6551   1.984   3.191   1.173
 1621WAT    EPW 6552   2.024   3.266   1.190
 1622WAT      O 6553   0.316   3.690   3.599
 1622WAT     H1 6554   0.252   3.667   3.533
 1622WAT     H2 6555   0.351   3.606   3.629
 1622WAT    EPW 6556   0.312   3.676   3.595
 1623WAT      O 6557   1.021   3.361   3.925
 1623WAT     H1 6558   1.065   3.442   3.953
 1623WAT     H2 6559   1.063   3.339   3.841
 1623WAT    EPW 6560   1.033   3.369   3.918
 1624WAT      O 6561   1.172   2.407   1.417
 1624WAT     H1 6562   1.124   2.480   1.455
 1624WAT     H2 6563   1.145   2.331   1.469
 1624WAT    EPW 6564   1.162   2.406   1.429
 1625WAT      O 6565   0.834   0.214   3.980
 1625WAT     H1 6566   0.781   0.291   3.998
 1625WAT     H2 6567   0.849   0.216   3.885
 1625WAT    EPW 6568   0.829   0.224   3.970
 1626WAT      O 6569   2.106   3.507   2.927
 1626WAT     H1 6570   2.190   3.490   2.884
 1626WAT     H2 6571   2.130   3.541   3.014
 1626WAT    EPW 6572   2.120   3.509   2.933
 1627WAT      O 6573   2.596   0.701   2.989
 1627WAT     H1 6574   2.561   0.669   2.905
 1627WAT     H2 6575   2.691   0.703   2.975
 1627WAT    EPW 6576   2.604   0.697   2.976
 1628WAT      O 6577   2.063   0.909   2.069
 1628WAT     H1 6578   1.975   0.879   2.046
 1628WAT     H2 6579   2.114   0.829   2.078
 1628WAT    EPW 6580   2.058   0.895   2.068
 1629WAT      O 6581   3.252   4.081   1.724
 1629WAT     H1 6582   3.268   4.000   1.773
 1629WAT     H2 6583   3.303   4.072   1.644
 1629WAT    EPW 6584   3.261   4.069   1.720
 1630WAT      O 6585   0.213   1.766   3.541
 1630WAT     H1 6586   0.135   1.729   3.582
 1630WAT     H2 6587   0.258   1.813   3.611
 1630WAT    EPW 6588   0.209   1.767   3.555
 1631WAT      O 6589   3.000   1.400   3.540
 1631WAT     H1 6590   2.994   1.345   3.618
 1631WAT     H2 6591   3.003   1.339   3.467
 1631WAT    EPW 6592   3.000   1.385   3.541
 1632WAT      O 6593   3.019   2.582   3.659
 1632WAT     H1 6594   3.071   2.656   3.629
 1632WAT     H2 6595   2.938   2.587   3.609
 1632WAT    EPW 6596   3.015   2.592   3.649
 1633WAT      O 6597   0.423   1.913   2.953
 1633WAT     H1 6598   0.374   1.989   2.986
 1633WAT     H2 6599   0.454   1.868   3.032
 1633WAT    EPW 6600   0.420   1.917   2.968
 1634WAT      O 6601   2.145   3.088   2.408
 1634WAT     H1 6602   2.063   3.065   2.452
 1634WAT     H2 6603   2.170   3.008   2.362
 1634WAT    EPW 6604   2.137   3.075   2.407
 1635WAT      O 6605   1.766   3.940   0.497
 1635WAT     H1 6606   1.692   3.992   0.528
 1635WAT     H2 6607   1.836   3.961   0.559
 1635WAT    EPW 6608   1.765   3.950   0.510
 1636WAT      O 6609   0.051   3.339   1.464
 1636WAT     H1 6610   0.021   3.284   1.536
 1636WAT     H2 6611  -0.007   3.317   1.392
 1636WAT    EPW 6612   0.039   3.329   1.464
 1637WAT      O 6613   2.403   4.110   2.370
 1637WAT     H1 6614   2.421   4.085   2.279
 1637WAT     H2 6615   2.457   4.050   2.422
 1637WAT    EPW 6616   2.413   4.099   2.365
 1638WAT      O 6617   3.488   3.870   0.719
 1638WAT     H1 6618   3.558   3.935   0.704
 1638WAT     H2 6619   3.436   3.872   0.638
 1638WAT    EPW 6620   3.491   3.879   0.706
 1639WAT      O 6621   0.523   1.206   1.345
 1639WAT     H1 6622   0.433   1.193   1.372
 1639WAT     H2 6623   0.560   1.265   1.411
 1639WAT    EPW 6624   0.516   1.212   1.357
 1640WAT      O 6625   1.448   0.369   1.786
 1640WAT     H1 6626   1.479   0.408   1.705
 1640WAT     H2 6627   1.460   0.438   1.852
 1640WAT    EPW 6628   1.453   0.383   1.784
 1641WAT      O 6629   1.684   0.351   3.633
 1641WAT     H1 6630   1.645   0.316   3.713
 1641WAT     H2 6631   1.632   0.314   3.562
 1641WAT    EPW 6632   1.672   0.342   3.634
 1642WAT      O 6633   1.644   3.408   0.777
 1642WAT     H1 6634   1.644   3.422   0.872
 1642WAT     H2 6635   1.623   3.315   0.767
 1642WAT    EPW 6636   1.641   3.398   0.788
 1643WAT      O 6637   0.011   1.963   2.980
 1643WAT     H1 6638  -0.019   1.901   3.047
 1643WAT     H2 6639  -0.006   1.919   2.897
 1643WAT    EPW 6640   0.005   1.949   2.978
 1644WAT      O 6641   1.509   4.115   1.128
 1644WAT     H1 6642   1.463   4.066   1.196
 1644WAT     H2 6643   1.500   4.206   1.154
 1644WAT    EPW 6644   1.502   4.120   1.140
 1645WAT      O 6645   0.713   3.133   2.705
 1645WAT     H1 6646   0.754   3.096   2.783
 1645WAT     H2 6647   0.672   3.214   2.736
 1645WAT    EPW 6648   0.713   3.138   2.720
 1646WAT      O 6649   1.297   0.159   2.232
 1646WAT     H1 6650   1.223   0.217   2.246
 1646WAT     H2 6651   1.270   0.101   2.160
 1646WAT    EPW 6652   1.284   0.159   2.225
 1647WAT      O 6653   2.846   3.199   3.270
 1647WAT     H1 6654   2.784   3.141   3.315
 1647WAT     H2 6655   2.913   3.140   3.236
 1647WAT    EPW 6656   2.847   3.183   3.272
 1648WAT      O 6657   3.616   1.542   3.976
 1648WAT     H1 6658   3.706   1.522   4.000
 1648WAT     H2 6659   3.622   1.625   3.928
 1648WAT    EPW 6660   3.628   1.550   3.973
 1649WAT      O 6661   2.950   0.347   1.630
 1649WAT     H1 6662   2.872   0.388   1.594
 1649WAT     H2 6663   2.986   0.412   1.690
 1649WAT    EPW 6664   2.944   0.361   1.633
 1650WAT      O 6665   1.495   0.590   3.606
 1650WAT     H1 6666   1.522   0.667   3.656
 1650WAT     H2 6667   1.562   0.525   3.623
 1650WAT    EPW 6668   1.507   0.592   3.615
 1651WAT      O 6669   0.641   0.916   1.345
 1651WAT     H1 6670   0.569   0.892   1.287
 1651WAT     H2 6671   0.647   1.011   1.339
 1651WAT    EPW 6672   0.633   0.925   1.337
 1652WAT      O 6673   2.618   1.929   0.365
 1652WAT     H1 6674   2.557   1.876   0.417
 1652WAT     H2 6675   2.646   1.871   0.294
 1652WAT    EPW 6676   2.614   1.914   0.363
 1653WAT      O 6677   0.058   1.252   0.768
 1653WAT     H1 6678  -0.028   1.293   0.775
 1653WAT     H2 6679   0.092   1.282   0.684
 1653WAT    EPW 6680   0.051   1.261   0.758
 1654WAT      O 6681   2.070   4.071   0.223
 1654WAT     H1 6682   2.057   3.990   0.273
 1654WAT     H2 6683   2.040   4.049   0.134
 1654WAT    EPW 6684   2.064   4.057   0.217
 1655WAT      O 6685   1.235   2.968   2.981
 1655WAT     H1 6686   1.307   3.000   3.036
 1655WAT     H2 6687   1.181   3.045   2.966
 1655WAT    EPW 6688   1.237   2.982   2.987
 1656WAT      O 6689   2.744   2.771   1.574
 1656WAT     H1 6690   2.657   2.739   1.599
 1656WAT     H2 6691   2.728   2.824   1.496
 1656WAT    EPW 6692   2.730   2.774   1.567
 1657WAT      O 6693   2.074   1.405   2.062
 1657WAT     H1 6694   2.123   1.333   2.102
 1657WAT     H2 6695   1.984   1.373   2.058
 1657WAT    EPW 6696   2.068   1.391   2.067
 1658WAT      O 6697   1.651   1.333   1.480
 1658WAT     H1 6698   1.583   1.378   1.530
 1658WAT     H2 6699   1.733   1.363   1.518
 1658WAT    EPW 6700   1.653   1.343   1.492
 1659WAT      O 6701   3.489   3.303   3.228
 1659WAT     H1 6702   3.430   3.339   3.162
 1659WAT     H2 6703   3.508   3.214   3.197
 1659WAT    EPW 6704   3.484   3.296   3.215
 1660WAT      O 6705   1.978   1.883   3.935
 1660WAT     H1 6706   1.971   1.933   4.016
 1660WAT     H2 6707   1.902   1.908   3.883
 1660WAT    EPW 6708   1.967   1.893   3.939
 1661WAT      O 6709   0.689   0.518   0.372
 1661WAT     H1 6710   0.595   0.512   0.355
 1661WAT     H2 6711   0.718   0.590   0.316
 1661WAT    EPW 6712   0.680   0.527   0.362
 1662WAT      O 6713   2.681   0.723   0.967
 1662WAT     H1 6714   2.649   0.808   0.998
 1662WAT     H2 6715   2.685   0.668   1.045
 1662WAT    EPW 6716   2.677   0.727   0.981
 1663WAT      O 6717   0.741   3.302   3.400
 1663WAT     H1 6718   0.759   3.368   3.333
 1663WAT     H2 6719   0.728   3.353   3.480
 1663WAT    EPW 6720   0.741   3.318   3.402
 1664WAT      O 6721   3.389   3.981   2.351
 1664WAT     H1 6722   3.443   3.989   2.430
 1664WAT     H2 6723   3.393   4.068   2.311
 1664WAT    EPW 6724   3.397   3.994   2.356
 1665WAT      O 6725   1.608   0.291   2.746
 1665WAT     H1 6726   1.655   0.250   2.819
 1665WAT     H2 6727   1.581   0.376   2.779
 1665WAT    EPW 6728   1.611   0.297   2.760
 1666WAT      O 6729   3.250   2.152   0.219
 1666WAT     H1 6730   3.286   2.155   0.131
 1666WAT     H2 6731   3.188   2.224   0.223
 1666WAT    EPW 6732   3.247   2.162   0.208
 1667WAT      O 6733   0.875   1.926   3.554
 1667WAT     H1 6734   0.861   1.903   3.646
 1667WAT     H2 6735   0.792   1.905   3.511
 1667WAT    EPW 6736   0.862   1.921   3.560
 1668WAT      O 6737   0.451   2.512   0.694
 1668WAT     H1 6738   0.521   2.577   0.696
 1668WAT     H2 6739   0.376   2.556   0.734
 1668WAT    EPW 6740   0.450   2.526   0.700
 1669WAT      O 6741   0.281   3.355   2.364
 1669WAT     H1 6742   0.310   3.264   2.359
 1669WAT     H2 6743   0.203   3.359   2.310
 1669WAT    EPW 6744   0.275   3.343   2.356
 1670WAT      O 6745   1.656   1.235   2.908
 1670WAT     H1 6746   1.716   1.310   2.904
 1670WAT     H2 6747   1.672   1.197   2.994
 1670WAT    EPW 6748   1.666   1.240   2.919
 1671WAT      O 6749   1.099   1.441   2.515
 1671WAT     H1 6750   1.167   1.417   2.453
 1671WAT     H2 6751   1.071   1.528   2.487
 1671WAT    EPW 6752   1.104   1.449   2.504
 1672WAT      O 6753   1.808   3.933   1.506
 1672WAT     H1 6754   1.717   3.925   1.532
 1672WAT     H2 6755   1.805   3.981   1.423
 1672WAT    EPW 6756   1.796   3.938   1.498
 1673WAT      O 6757   2.423   0.459   0.034
 1673WAT     H1 6758   2.351   0.414   0.078
 1673WAT     H2 6759   2.492   0.464   0.100
 1673WAT    EPW 6760   2.423   0.454   0.048
 1674WAT      O 6761   1.861   3.472   2.138
 1674WAT     H1 6762   1.785   3.472   2.197
 1674WAT     H2 6763   1.912   3.395   2.163
 1674WAT    EPW 6764   1.858   3.462   2.149
 1675WAT      O 6765   1.092   3.484   2.194
 1675WAT     H1 6766   1.065   3.410   2.248
 1675WAT     H2 6767   1.094   3.448   2.105
 1675WAT    EPW 6768   1.089   3.470   2.189
 1676WAT      O 6769   3.328   1.220   3.122
 1676WAT     H1 6770   3.372   1.274   3.057
 1676WAT     H2 6771   3.318   1.135   3.080
 1676WAT    EPW 6772   3.332   1.216   3.108
 1677WAT      O 6773   1.299   2.457   0.300
 1677WAT     H1 6774   1.340   2.375   0.327
 1677WAT     H2 6775   1.279   2.445   0.207
 1677WAT    EPW 6776   1.302   2.445   0.291
 1678WAT      O 6777   0.975   2.310   2.180
 1678WAT     H1 6778   1.048   2.336   2.125
 1678WAT     H2 6779   0.967   2.215   2.168
 1678WAT    EPW 6780   0.983   2.301   2.171
 1679WAT      O 6781   2.996   0.799   4.031
 1679WAT     H1 6782   2.933   0.730   4.011
 1679WAT     H2 6783   3.076   0.753   4.054
 1679WAT    EPW 6784   2.998   0.784   4.032
 1680WAT      O 6785   1.512   0.843   3.792
 1680WAT     H1 6786   1.506   0.857   3.886
 1680WAT     H2 6787   1.429   0.875   3.757
 1680WAT    EPW 6788   1.501   0.849   3.800
 1681WAT      O 6789   0.667   1.527   1.829
 1681WAT     H1 6790   0.707   1.614   1.836
 1681WAT     H2 6791   0.737   1.470   1.799
 1681WAT    EPW 6792   0.681   1.531   1.826
 1682WAT      O 6793   1.666   0.506   0.145
 1682WAT     H1 6794   1.716   0.573   0.098
 1682WAT     H2 6795   1.731   0.438   0.164
 1682WAT    EPW 6796   1.681   0.506   0.141
 1683WAT      O 6797   1.569   2.604   1.804
 1683WAT     H1 6798   1.630   2.573   1.871
 1683WAT     H2 6799   1.506   2.657   1.853
 1683WAT    EPW 6800   1.568   2.607   1.819
 1684WAT      O 6801   0.779   2.456   1.518
 1684WAT     H1 6802   0.840   2.526   1.543
 1684WAT     H2 6803   0.696   2.501   1.503
 1684WAT    EPW 6804   0.776   2.471   1.520
 1685WAT      O 6805   2.943   2.558   4.051
 1685WAT     H1 6806   2.965   2.599   3.967
 1685WAT     H2 6807   2.974   2.619   4.117
 1685WAT    EPW 6808   2.950   2.571   4.049
 1686WAT      O 6809   3.243   0.591   0.542
 1686WAT     H1 6810   3.256   0.506   0.499
 1686WAT     H2 6811   3.301   0.651   0.496
 1686WAT    EPW 6812   3.252   0.588   0.530
 1687WAT      O 6813   0.904   0.141   3.660
 1687WAT     H1 6814   0.809   0.129   3.654
 1687WAT     H2 6815   0.939   0.052   3.656
 1687WAT    EPW 6816   0.896   0.127   3.659
 1688WAT      O 6817   0.659   2.855   2.299
 1688WAT     H1 6818   0.606   2.808   2.235
 1688WAT     H2 6819   0.643   2.810   2.381
 1688WAT    EPW 6820   0.650   2.843   2.301
 1689WAT      O 6821   2.218   3.507   0.148
 1689WAT     H1 6822   2.130   3.471   0.137
 1689WAT     H2 6823   2.250   3.522   0.059
 1689WAT    EPW 6824   2.210   3.504   0.135
 1690WAT      O 6825   1.022   1.267   0.842
 1690WAT     H1 6826   1.084   1.282   0.913
 1690WAT     H2 6827   1.030   1.344   0.785
 1690WAT    EPW 6828   1.031   1.279   0.844
 1691WAT      O 6829   3.054   1.918   0.204
 1691WAT     H1 6830   2.977   1.971   0.227
 1691WAT     H2 6831   3.125   1.982   0.197
 1691WAT    EPW 6832   3.053   1.934   0.206
 1692WAT      O 6833   1.961   1.364   2.848
 1692WAT     H1 6834   1.982   1.409   2.930
 1692WAT     H2 6835   2.006   1.280   2.854
 1692WAT    EPW 6836   1.970   1.359   2.860
 1693WAT      O 6837   2.790   3.405   2.654
 1693WAT     H1 6838   2.745   3.351   2.719
 1693WAT     H2 6839   2.738   3.395   2.574
 1693WAT    EPW 6840   2.777   3.396   2.652
 1694WAT      O 6841   2.806   1.336   1.659
 1694WAT     H1 6842   2.722   1.292   1.668
 1694WAT     H2 6843   2.843   1.337   1.747
 1694WAT    EPW 6844   2.800   1.331   1.672
 1695WAT      O 6845   2.358   0.092   0.514
 1695WAT     H1 6846   2.309   0.033   0.571
 1695WAT     H2 6847   2.447   0.090   0.549
 1695WAT    EPW 6848   2.363   0.084   0.526
 1696WAT      O 6849   3.030   3.315   0.211
 1696WAT     H1 6850   3.111   3.366   0.206
 1696WAT     H2 6851   3.040   3.247   0.145
 1696WAT    EPW 6852   3.042   3.313   0.202
 1697WAT      O 6853   2.036   1.404   3.359
 1697WAT     H1 6854   2.028   1.329   3.418
 1697WAT     H2 6855   2.005   1.478   3.412
 1697WAT    EPW 6856   2.031   1.404   3.374
 1698WAT      O 6857   1.377   2.768   3.779
 1698WAT     H1 6858   1.362   2.683   3.739
 1698WAT     H2 6859   1.382   2.830   3.706
 1698WAT    EPW 6860   1.376   2.765   3.764
 1699WAT      O 6861   3.658   0.650   0.864
 1699WAT     H1 6862   3.666   0.605   0.780
 1699WAT     H2 6863   3.596   0.597   0.914
 1699WAT    EPW 6864   3.651   0.637   0.860
 1700WAT      O 6865   0.358   1.538   1.279
 1700WAT     H1 6866   0.301   1.463   1.296
 1700WAT     H2 6867   0.374   1.576   1.366
 1700WAT    EPW 6868   0.352   1.533   1.293
 1701WAT      O 6869   1.202   1.906   3.099
 1701WAT     H1 6870   1.225   1.826   3.052
 1701WAT     H2 6871   1.193   1.972   3.029
 1701WAT    EPW 6872   1.204   1.904   3.083
 1702WAT      O 6873   2.934   0.790   0.660
 1702WAT     H1 6874   2.982   0.812   0.740
 1702WAT     H2 6875   2.905   0.874   0.626
 1702WAT    EPW 6876   2.937   0.804   0.666
 1703WAT      O 6877   2.050   1.221   2.431
 1703WAT     H1 6878   2.135   1.265   2.427
 1703WAT     H2 6879   2.041   1.178   2.346
 1703WAT    EPW 6880   2.060   1.221   2.419
 1704WAT      O 6881   2.650   2.531   0.211
 1704WAT     H1 6882   2.743   2.548   0.199
 1704WAT     H2 6883   2.646   2.457   0.271
 1704WAT    EPW 6884   2.661   2.524   0.217
 1705WAT      O 6885   3.241   2.237   3.388
 1705WAT     H1 6886   3.192   2.163   3.352
 1705WAT     H2 6887   3.239   2.302   3.318
 1705WAT    EPW 6888   3.234   2.235   3.374
 1706WAT      O 6889   3.469   0.502   1.997
 1706WAT     H1 6890   3.508   0.555   2.066
 1706WAT     H2 6891   3.541   0.449   1.963
 1706WAT    EPW 6892   3.483   0.502   2.001
 1707WAT      O 6893   1.895   2.545   0.984
 1707WAT     H1 6894   1.902   2.520   1.076
 1707WAT     H2 6895   1.807   2.515   0.958
 1707WAT    EPW 6896   1.884   2.538   0.992
 1708WAT      O 6897   1.759   1.756   0.391
 1708WAT     H1 6898   1.847   1.780   0.362
 1708WAT     H2 6899   1.712   1.737   0.309
 1708WAT    EPW 6900   1.765   1.756   0.376
 1709WAT      O 6901   3.074   3.452   2.075
 1709WAT     H1 6902   2.986   3.479   2.100
 1709WAT     H2 6903   3.105   3.522   2.017
 1709WAT    EPW 6904   3.067   3.465   2.071
 1710WAT      O 6905   3.514   3.412   2.228
 1710WAT     H1 6906   3.482   3.323   2.245
 1710WAT     H2 6907   3.528   3.449   2.316
 1710WAT    EPW 6908   3.512   3.405   2.242
 1711WAT      O 6909   0.996   1.478   2.107
 1711WAT     H1 6910   1.063   1.413   2.129
 1711WAT     H2 6911   0.972   1.458   2.016
 1711WAT    EPW 6912   1.002   1.467   2.098
 1712WAT      O 6913   2.874   3.728   1.313
 1712WAT     H1 6914   2.913   3.641   1.315
 1712WAT     H2 6915   2.928   3.778   1.251
 1712WAT    EPW 6916   2.886   3.723   1.305
 1713WAT      O 6917   3.506   2.676   0.926
 1713WAT     H1 6918   3.528   2.717   0.843
 1713WAT     H2 6919   3.561   2.597   0.929
 1713WAT    EPW 6920   3.516   2.671   0.915
 1714WAT      O 6921   0.889   0.597   3.508
 1714WAT     H1 6922   0.954   0.527   3.509
 1714WAT     H2 6923   0.911   0.649   3.431
 1714WAT    EPW 6924   0.901   0.594   3.498
 1715WAT      O 6925   1.005   0.631   2.289
 1715WAT     H1 6926   0.997   0.637   2.384
 1715WAT     H2 6927   0.965   0.712   2.256
 1715WAT    EPW 6928   0.999   0.643   2.297
 1716WAT      O 6929   3.494   0.969   2.135
 1716WAT     H1 6930   3.526   0.879   2.136
 1716WAT     H2 6931   3.427   0.972   2.203
 1716WAT    EPW 6932   3.490   0.958   2.144
 1717WAT      O 6933   0.295   3.637   1.314
 1717WAT     H1 6934   0.270   3.727   1.291
 1717WAT     H2 6935   0.267   3.628   1.406
 1717WAT    EPW 6936   0.288   3.648   1.323
 1718WAT      O 6937   3.212   1.736   1.534
 1718WAT     H1 6938   3.163   1.798   1.588
 1718WAT     H2 6939   3.225   1.660   1.590
 1718WAT    EPW 6940   3.207   1.734   1.548
 1719WAT      O 6941   3.711   0.535   0.143
 1719WAT     H1 6942   3.641   0.563   0.201
 1719WAT     H2 6943   3.773   0.608   0.143
 1719WAT    EPW 6944   3.710   0.548   0.150
 1720WAT      O 6945   2.022   1.186   1.547
 1720WAT     H1 6946   2.111   1.184   1.582
 1720WAT     H2 6947   1.996   1.278   1.552
 1720WAT    EPW 6948   2.030   1.198   1.552
 1721WAT      O 6949   3.079   2.317   2.531
 1721WAT     H1 6950   3.006   2.372   2.500
 1721WAT     H2 6951   3.133   2.304   2.453
 1721WAT    EPW 6952   3.076   2.322   2.517
 1722WAT      O 6953   2.376   1.811   0.510
 1722WAT     H1 6954   2.350   1.746   0.445
 1722WAT     H2 6955   2.402   1.760   0.587
 1722WAT    EPW 6956   2.376   1.796   0.512
 1723WAT      O 6957   1.847   3.034   0.162
 1723WAT     H1 6958   1.782   3.079   0.107
 1723WAT     H2 6959   1.818   2.943   0.163
 1723WAT    EPW 6960   1.834   3.028   0.155
 1724WAT      O 6961   0.398   0.497   4.016
 1724WAT     H1 6962   0.329   0.563   4.021
 1724WAT     H2 6963   0.357   0.417   4.047
 1724WAT    EPW 6964   0.384   0.495   4.021
 1725WAT      O 6965   2.017   2.299   0.300
 1725WAT     H1 6966   1.991   2.228   0.359
 1725WAT     H2 6967   2.112   2.306   0.312
 1725WAT    EPW 6968   2.026   2.290   0.309
 1726WAT      O 6969   3.276   3.191   1.889
 1726WAT     H1 6970   3.264   3.136   1.812
 1726WAT     H2 6971   3.332   3.139   1.947
 1726WAT    EPW 6972   3.282   3.177   1.887
 1727WAT      O 6973   3.423   2.741   3.587
 1727WAT     H1 6974   3.451   2.664   3.637
 1727WAT     H2 6975   3.348   2.775   3.635
 1727WAT    EPW 6976   3.417   2.735   3.600
 1728WAT      O 6977   1.754   2.092   1.813
 1728WAT     H1 6978   1.797   2.177   1.827
 1728WAT     H2 6979   1.705   2.078   1.894
 1728WAT    EPW 6980   1.753   2.101   1.826
 1729WAT      O 6981   1.828   3.098   2.407
 1729WAT     H1 6982   1.809   3.149   2.485
 1729WAT     H2 6983   1.856   3.013   2.440
 1729WAT    EPW 6984   1.829   3.093   2.421
 1730WAT      O 6985   3.127   2.347   0.849
 1730WAT     H1 6986   3.116   2.291   0.926
 1730WAT     H2 6987   3.047   2.335   0.799
 1730WAT    EPW 6988   3.115   2.338   0.853
 1731WAT      O 6989   3.567   2.796   0.661
 1731WAT     H1 6990   3.477   2.789   0.631
 1731WAT     H2 6991   3.619   2.803   0.581
 1731WAT    EPW 6992   3.562   2.796   0.646
 1732WAT      O 6993   2.729   3.051   2.641
 1732WAT     H1 6994   2.726   3.113   2.715
 1732WAT     H2 6995   2.754   2.968   2.681
 1732WAT    EPW 6996   2.732   3.049   2.656
 1733WAT      O 6997   0.417   0.941   0.006
 1733WAT     H1 6998   0.487   1.000   0.033
 1733WAT     H2 6999   0.417   0.945  -0.090
 1733WAT    EPW 7000   0.426   0.949  -0.003
 1734WAT      O 7001   1.431   3.429   1.898
 1734WAT     H1 7002   1.518   3.466   1.886
 1734WAT     H2 7003   1.371   3.500   1.876
 1734WAT    EPW 7004   1.434   3.443   1.893
 1735WAT      O 7005   2.141   0.837   1.766
 1735WAT     H1 7006   2.177   0.867   1.849
 1735WAT     H2 7007   2.107   0.749   1.785
 1735WAT    EPW 7008   2.141   0.829   1.779
 1736WAT      O 7009   2.797   2.042   0.552
 1736WAT     H1 7010   2.735   1.995   0.496
 1736WAT     H2 7011   2.847   1.974   0.596
 1736WAT    EPW 7012   2.795   2.027   0.551
 1737WAT      O 7013   0.241   2.035   1.024
 1737WAT     H1 7014   0.245   1.970   1.094
 1737WAT     H2 7015   0.169   2.093   1.050
 1737WAT    EPW 7016   0.232   2.034   1.037
 1738WAT      O 7017   3.374   3.042   0.828
 1738WAT     H1 7018   3.314   3.117   0.830
 1738WAT     H2 7019   3.461   3.082   0.834
 1738WAT    EPW 7020   3.378   3.057   0.829
 1739WAT      O 7021   3.509   2.288   1.809
 1739WAT     H1 7022   3.516   2.320   1.719
 1739WAT     H2 7023   3.431   2.232   1.809
 1739WAT    EPW 7024   3.499   2.285   1.797
 1740WAT      O 7025   3.069   4.034   3.205
 1740WAT     H1 7026   3.025   4.042   3.121
 1740WAT     H2 7027   3.016   4.086   3.265
 1740WAT    EPW 7028   3.056   4.042   3.202
 1741WAT      O 7029   2.014   1.099   3.812
 1741WAT     H1 7030   1.926   1.119   3.842
 1741WAT     H2 7031   2.060   1.183   3.815
 1741WAT    EPW 7032   2.009   1.113   3.817
 1742WAT      O 7033   2.938   3.406   2.968
 1742WAT     H1 7034   3.015   3.388   3.022
 1742WAT     H2 7035   2.967   3.473   2.906
 1742WAT    EPW 7036   2.952   3.412   2.967
 1743WAT      O 7037   2.049   0.007   3.731
 1743WAT     H1 7038   2.134   0.046   3.709
 1743WAT     H2 7039   1.986   0.059   3.682
 1743WAT    EPW 7040   2.052   0.019   3.722
 1744WAT      O 7041   3.367   1.621   1.109
 1744WAT     H1 7042   3.303   1.664   1.166
 1744WAT     H2 7043   3.452   1.650   1.143
 1744WAT    EPW 7044   3.370   1.631   1.121
 1745WAT      O 7045   0.816   3.412   2.881
 1745WAT     H1 7046   0.856   3.375   2.803
 1745WAT     H2 7047   0.834   3.347   2.950
 1745WAT    EPW 7048   0.824   3.398   2.880
 1746WAT      O 7049   0.969   1.494   0.674
 1746WAT     H1 7050   0.898   1.442   0.636
 1746WAT     H2 7051   0.954   1.583   0.642
 1746WAT    EPW 7052   0.958   1.499   0.665
 1747WAT      O 7053   3.470   0.753   0.490
 1747WAT     H1 7054   3.486   0.820   0.424
 1747WAT     H2 7055   3.557   0.718   0.509
 1747WAT    EPW 7056   3.484   0.757   0.484
 1748WAT      O 7057   0.301   1.834   1.207
 1748WAT     H1 7058   0.385   1.857   1.246
 1748WAT     H2 7059   0.304   1.738   1.198
 1748WAT    EPW 7060   0.312   1.824   1.211
 1749WAT      O 7061   3.179   2.858   3.669
 1749WAT     H1 7062   3.159   2.850   3.762
 1749WAT     H2 7063   3.106   2.909   3.633
 1749WAT    EPW 7064   3.167   2.864   3.676
 1750WAT      O 7065   0.972   1.390   1.832
 1750WAT     H1 7066   1.067   1.380   1.836
 1750WAT     H2 7067   0.950   1.371   1.740
 1750WAT    EPW 7068   0.982   1.386   1.820
 1751WAT      O 7069   1.611   1.918   3.112
 1751WAT     H1 7070   1.588   1.831   3.144
 1751WAT     H2 7071   1.679   1.902   3.046
 1751WAT    EPW 7072   1.617   1.904   3.107
 1752WAT      O 7073   1.652   3.709   0.377
 1752WAT     H1 7074   1.706   3.778   0.416
 1752WAT     H2 7075   1.578   3.700   0.436
 1752WAT    EPW 7076   1.650   3.717   0.390
 1753WAT      O 7077   3.466   2.399   3.931
 1753WAT     H1 7078   3.466   2.304   3.939
 1753WAT     H2 7079   3.374   2.424   3.933
 1753WAT    EPW 7080   3.454   2.390   3.932
 1754WAT      O 7081   2.295   1.227   1.699
 1754WAT     H1 7082   2.282   1.174   1.778
 1754WAT     H2 7083   2.390   1.225   1.685
 1754WAT    EPW 7084   2.306   1.220   1.708
 1755WAT      O 7085   3.365   0.043   0.716
 1755WAT     H1 7086   3.415   0.075   0.641
 1755WAT     H2 7087   3.309  -0.025   0.678
 1755WAT    EPW 7088   3.364   0.038   0.701
 1756WAT      O 7089   1.621   3.117   0.028
 1756WAT     H1 7090   1.564   3.149  -0.042
 1756WAT     H2 7091   1.571   3.046   0.068
 1756WAT    EPW 7092   1.607   3.112   0.024
 1757WAT      O 7093   0.661   1.103   1.892
 1757WAT     H1 7094   0.711   1.133   1.968
 1757WAT     H2 7095   0.571   1.129   1.911
 1757WAT    EPW 7096   0.656   1.110   1.904
 1758WAT      O 7097   3.587   1.510   1.334
 1758WAT     H1 7098   3.530   1.517   1.410
 1758WAT     H2 7099   3.555   1.433   1.287
 1758WAT    EPW 7100   3.575   1.501   1.338
 1759WAT      O 7101   2.711   2.288   0.423
 1759WAT     H1 7102   2.704   2.212   0.481
 1759WAT     H2 7103   2.718   2.363   0.482
 1759WAT    EPW 7104   2.711   2.288   0.438
 1760WAT      O 7105   3.512   3.721   2.348
 1760WAT     H1 7106   3.602   3.736   2.319
 1760WAT     H2 7107   3.475   3.808   2.358
 1760WAT    EPW 7108   3.519   3.734   2.345
 1761WAT      O 7109   3.515   0.624   3.356
 1761WAT     H1 7110   3.456   0.681   3.308
 1761WAT     H2 7111   3.515   0.542   3.306
 1761WAT    EPW 7112   3.507   0.620   3.343
 1762WAT      O 7113   1.455   4.062   0.148
 1762WAT     H1 7114   1.417   4.133   0.096
 1762WAT     H2 7115   1.457   3.988   0.087
 1762WAT    EPW 7116   1.450   4.061   0.133
 1763WAT      O 7117   0.569   3.174   2.465
 1763WAT     H1 7118   0.656   3.156   2.500
 1763WAT     H2 7119   0.550   3.264   2.492
 1763WAT    EPW 7120   0.578   3.184   2.473
 1764WAT      O 7121   3.235   2.787   1.947
 1764WAT     H1 7122   3.330   2.793   1.935
 1764WAT     H2 7123   3.210   2.707   1.899
 1764WAT    EPW 7124   3.245   2.777   1.939
 1765WAT      O 7125   1.114   3.483   0.951
 1765WAT     H1 7126   1.079   3.448   0.869
 1765WAT     H2 7127   1.207   3.495   0.933
 1765WAT    EPW 7128   1.122   3.480   0.938
 1766WAT      O 7129   2.813   0.184   1.328
 1766WAT     H1 7130   2.719   0.184   1.308
 1766WAT     H2 7131   2.836   0.277   1.333
 1766WAT    EPW 7132   2.803   0.196   1.326
 1767WAT      O 7133   2.887   1.402   0.254
 1767WAT     H1 7134   2.940   1.325   0.275
 1767WAT     H2 7135   2.802   1.384   0.294
 1767WAT    EPW 7136   2.883   1.389   0.262
 1768WAT      O 7137   1.080   0.749   4.059
 1768WAT     H1 7138   1.038   0.677   4.105
 1768WAT     H2 7139   1.087   0.719   3.968
 1768WAT    EPW 7140   1.075   0.736   4.053
 1769WAT      O 7141   2.668   2.284   2.391
 1769WAT     H1 7142   2.662   2.371   2.430
 1769WAT     H2 7143   2.650   2.224   2.463
 1769WAT    EPW 7144   2.665   2.287   2.406
 1770WAT      O 7145   0.074   2.793   3.037
 1770WAT     H1 7146   0.101   2.822   3.124
 1770WAT     H2 7147   0.122   2.711   3.024
 1770WAT    EPW 7148   0.084   2.786   3.047
 1771WAT      O 7149   0.606   0.080   3.612
 1771WAT     H1 7150   0.613   0.171   3.642
 1771WAT     H2 7151   0.523   0.049   3.648
 1771WAT    EPW 7152   0.596   0.088   3.621
 1772WAT      O 7153   2.301   0.619   2.968
 1772WAT     H1 7154   2.340   0.557   3.029
 1772WAT     H2 7155   2.344   0.601   2.884
 1772WAT    EPW 7156   2.312   0.609   2.965
 1773WAT      O 7157   1.901   2.568   1.831
 1773WAT     H1 7158   1.884   2.475   1.839
 1773WAT     H2 7159   1.924   2.596   1.919
 1773WAT    EPW 7160   1.902   2.560   1.844
 1774WAT      O 7161   0.914   2.934   2.571
 1774WAT     H1 7162   0.945   2.912   2.483
 1774WAT     H2 7163   0.821   2.911   2.569
 1774WAT    EPW 7164   0.905   2.928   2.559
 1775WAT      O 7165   1.822   3.603   0.662
 1775WAT     H1 7166   1.776   3.540   0.718
 1775WAT     H2 7167   1.768   3.681   0.663
 1775WAT    EPW 7168   1.809   3.605   0.669
 1776WAT      O 7169   1.294   3.038   1.809
 1776WAT     H1 7170   1.343   3.108   1.765
 1776WAT     H2 7171   1.234   3.085   1.868
 1776WAT    EPW 7172   1.293   3.054   1.811
 1777WAT      O 7173   2.714   1.858   0.064
 1777WAT     H1 7174   2.762   1.776   0.052
 1777WAT     H2 7175   2.773   1.926   0.031
 1777WAT    EPW 7176   2.728   1.856   0.058
 1778WAT      O 7177   0.702   3.156   1.239
 1778WAT     H1 7178   0.740   3.108   1.313
 1778WAT     H2 7179   0.609   3.159   1.258
 1778WAT    EPW 7180   0.695   3.150   1.252
 1779WAT      O 7181   1.402   3.654   0.497
 1779WAT     H1 7182   1.306   3.651   0.495
 1779WAT     H2 7183   1.422   3.708   0.574
 1779WAT    EPW 7184   1.392   3.661   0.507
 1780WAT      O 7185   2.176   1.025   3.289
 1780WAT     H1 7186   2.154   1.035   3.382
 1780WAT     H2 7187   2.127   0.947   3.262
 1780WAT    EPW 7188   2.166   1.016   3.298
 1781WAT      O 7189   3.039   0.443   1.057
 1781WAT     H1 7190   2.963   0.453   1.000
 1781WAT     H2 7191   3.078   0.530   1.061
 1781WAT    EPW 7192   3.034   0.456   1.050
 1782WAT      O 7193   0.122   0.835   2.257
 1782WAT     H1 7194   0.073   0.780   2.319
 1782WAT     H2 7195   0.132   0.919   2.303
 1782WAT    EPW 7196   0.116   0.839   2.271
 1783WAT      O 7197   3.330   1.818   2.383
 1783WAT     H1 7198   3.418   1.846   2.407
 1783WAT     H2 7199   3.341   1.729   2.352
 1783WAT    EPW 7200   3.343   1.810   2.382
 1784WAT      O 7201   3.113   2.210   4.019
 1784WAT     H1 7202   3.161   2.139   3.977
 1784WAT     H2 7203   3.070   2.257   3.947
 1784WAT    EPW 7204   3.113   2.207   4.004
 1785WAT      O 7205   0.261   2.583   2.506
 1785WAT     H1 7206   0.308   2.618   2.430
 1785WAT     H2 7207   0.201   2.519   2.469
 1785WAT    EPW 7208   0.259   2.579   2.491
 1786WAT      O 7209   3.053   2.352   2.810
 1786WAT     H1 7210   3.072   2.349   2.717
 1786WAT     H2 7211   3.000   2.274   2.826
 1786WAT    EPW 7212   3.048   2.341   2.800
 1787WAT      O 7213   0.357   0.691   1.049
 1787WAT     H1 7214   0.347   0.756   1.119
 1787WAT     H2 7215   0.394   0.614   1.093
 1787WAT    EPW 7216   0.360   0.689   1.064
 1788WAT      O 7217   1.767   0.047   3.471
 1788WAT     H1 7218   1.766  -0.028   3.531
 1788WAT     H2 7219   1.853   0.086   3.484
 1788WAT    EPW 7220   1.778   0.042   3.481
 1789WAT      O 7221   1.954   1.900   0.697
 1789WAT     H1 7222   1.966   1.805   0.692
 1789WAT     H2 7223   2.043   1.934   0.706
 1789WAT    EPW 7224   1.967   1.892   0.698
 1790WAT      O 7225   0.371   2.023   2.124
 1790WAT     H1 7226   0.377   1.985   2.036
 1790WAT     H2 7227   0.439   2.091   2.125
 1790WAT    EPW 7228   0.381   2.027   2.112
 1791WAT      O 7229   0.833   1.747   2.162
 1791WAT     H1 7230   0.790   1.801   2.227
 1791WAT     H2 7231   0.818   1.657   2.191
 1791WAT    EPW 7232   0.825   1.742   2.174
 1792WAT      O 7233   1.358   0.780   0.408
 1792WAT     H1 7234   1.452   0.792   0.391
 1792WAT     H2 7235   1.340   0.841   0.480
 1792WAT    EPW 7236   1.368   0.790   0.415
 1793WAT      O 7237   3.325   2.879   2.492
 1793WAT     H1 7238   3.383   2.938   2.443
 1793WAT     H2 7239   3.321   2.915   2.580
 1793WAT    EPW 7240   3.332   2.891   2.497
 1794WAT      O 7241   2.186   0.424   3.444
 1794WAT     H1 7242   2.212   0.393   3.530
 1794WAT     H2 7243   2.174   0.519   3.455
 1794WAT    EPW 7244   2.188   0.433   3.457
 1795WAT      O 7245   3.580   3.972   3.111
 1795WAT     H1 7246   3.497   3.934   3.140
 1795WAT     H2 7247   3.626   3.900   3.067
 1795WAT    EPW 7248   3.575   3.958   3.109
 1796WAT      O 7249   1.609   2.646   2.901
 1796WAT     H1 7250   1.661   2.715   2.859
 1796WAT     H2 7251   1.543   2.623   2.836
 1796WAT    EPW 7252   1.607   2.652   2.887
 1797WAT      O 7253   2.470   2.096   0.154
 1797WAT     H1 7254   2.421   2.044   0.089
 1797WAT     H2 7255   2.538   2.037   0.186
 1797WAT    EPW 7256   2.472   2.081   0.149
 1798WAT      O 7257   3.725   0.740   3.746
 1798WAT     H1 7258   3.644   0.694   3.724
 1798WAT     H2 7259   3.792   0.695   3.696
 1798WAT    EPW 7260   3.723   0.728   3.737
 1799WAT      O 7261   1.122   0.000   3.013
 1799WAT     H1 7262   1.161   0.051   2.942
 1799WAT     H2 7263   1.046   0.051   3.040
 1799WAT    EPW 7264   1.117   0.014   3.007
 1800WAT      O 7265   2.342   1.171   0.422
 1800WAT     H1 7266   2.271   1.196   0.363
 1800WAT     H2 7267   2.405   1.126   0.366
 1800WAT    EPW 7268   2.341   1.168   0.407
 1801WAT      O 7269   2.370   2.303   2.146
 1801WAT     H1 7270   2.404   2.303   2.057
 1801WAT     H2 7271   2.419   2.234   2.191
 1801WAT    EPW 7272   2.381   2.294   2.140
 1802WAT      O 7273   0.672   0.471   4.018
 1802WAT     H1 7274   0.580   0.497   4.009
 1802WAT     H2 7275   0.676   0.428   4.104
 1802WAT    EPW 7276   0.660   0.469   4.028
 1803WAT      O 7277   3.220   0.227   1.449
 1803WAT     H1 7278   3.235   0.264   1.362
 1803WAT     H2 7279   3.159   0.288   1.490
 1803WAT    EPW 7280   3.214   0.240   1.443
 1804WAT      O 7281   2.979   3.587   0.587
 1804WAT     H1 7282   2.978   3.564   0.494
 1804WAT     H2 7283   2.887   3.601   0.609
 1804WAT    EPW 7284   2.967   3.586   0.578
 1805WAT      O 7285   1.729   0.449   1.238
 1805WAT     H1 7286   1.657   0.391   1.215
 1805WAT     H2 7287   1.753   0.491   1.155
 1805WAT    EPW 7288   1.722   0.447   1.224
 1806WAT      O 7289   3.282   2.765   1.582
 1806WAT     H1 7290   3.197   2.736   1.616
 1806WAT     H2 7291   3.274   2.860   1.576
 1806WAT    EPW 7292   3.270   2.774   1.585
 1807WAT      O 7293   2.682   0.668   0.647
 1807WAT     H1 7294   2.618   0.726   0.607
 1807WAT     H2 7295   2.760   0.722   0.658
 1807WAT    EPW 7296   2.684   0.683   0.643
 1808WAT      O 7297   0.456   1.711   1.512
 1808WAT     H1 7298   0.489   1.723   1.601
 1808WAT     H2 7299   0.393   1.782   1.500
 1808WAT    EPW 7300   0.452   1.722   1.522
 1809WAT      O 7301   3.647   3.840   1.990
 1809WAT     H1 7302   3.686   3.834   2.077
 1809WAT     H2 7303   3.597   3.759   1.980
 1809WAT    EPW 7304   3.646   3.829   2.000
 1810WAT      O 7305   1.914   3.743   2.193
 1810WAT     H1 7306   1.911   3.648   2.188
 1810WAT     H2 7307   1.869   3.772   2.113
 1810WAT    EPW 7308   1.908   3.734   2.182
 1811WAT      O 7309   1.577   0.356   3.082
 1811WAT     H1 7310   1.516   0.287   3.057
 1811WAT     H2 7311   1.521   0.425   3.119
 1811WAT    EPW 7312   1.562   0.356   3.084
 1812WAT      O 7313   2.354   0.010   3.255
 1812WAT     H1 7314   2.310  -0.008   3.338
 1812WAT     H2 7315   2.412  -0.065   3.242
 1812WAT    EPW 7316   2.356  -0.002   3.264
 1813WAT      O 7317   0.463   1.710   2.675
 1813WAT     H1 7318   0.435   1.629   2.632
 1813WAT     H2 7319   0.531   1.745   2.618
 1813WAT    EPW 7320   0.469   1.704   2.662
 1814WAT      O 7321   3.559   0.180   0.560
 1814WAT     H1 7322   3.639   0.174   0.508
 1814WAT     H2 7323   3.509   0.251   0.519
 1814WAT    EPW 7324   3.563   0.189   0.547
 1815WAT      O 7325   0.139   1.363   2.677
 1815WAT     H1 7326   0.126   1.443   2.729
 1815WAT     H2 7327   0.227   1.373   2.640
 1815WAT    EPW 7328   0.149   1.375   2.679
 1816WAT      O 7329   1.172   3.688   0.148
 1816WAT     H1 7330   1.263   3.661   0.141
 1816WAT     H2 7331   1.175   3.784   0.150
 1816WAT    EPW 7332   1.184   3.697   0.147
 1817WAT      O 7333   2.813   3.647   2.150
 1817WAT     H1 7334   2.743   3.699   2.112
 1817WAT     H2 7335   2.815   3.674   2.242
 1817WAT    EPW 7336   2.804   3.658   2.157
 1818WAT      O 7337   1.155   2.488   3.137
 1818WAT     H1 7338   1.221   2.481   3.206
 1818WAT     H2 7339   1.188   2.556   3.079
 1818WAT    EPW 7340   1.168   2.496   3.138
 1819WAT      O 7341   0.441   2.704   2.894
 1819WAT     H1 7342   0.371   2.640   2.878
 1819WAT     H2 7343   0.425   2.774   2.831
 1819WAT    EPW 7344   0.430   2.705   2.884
 1820WAT      O 7345   1.956   1.662   1.966
 1820WAT     H1 7346   2.003   1.581   1.987
 1820WAT     H2 7347   1.879   1.633   1.918
 1820WAT    EPW 7348   1.952   1.647   1.963
 1821WAT      O 7349   0.585   0.495   1.138
 1821WAT     H1 7350   0.620   0.526   1.055
 1821WAT     H2 7351   0.651   0.519   1.203
 1821WAT    EPW 7352   0.598   0.503   1.136
 1822WAT      O 7353   1.749   1.647   1.348
 1822WAT     H1 7354   1.763   1.738   1.374
 1822WAT     H2 7355   1.661   1.627   1.380
 1822WAT    EPW 7356   1.740   1.656   1.356
 1823WAT      O 7357   3.508   3.969   1.266
 1823WAT     H1 7358   3.499   3.988   1.173
 1823WAT     H2 7359   3.419   3.977   1.300
 1823WAT    EPW 7360   3.495   3.973   1.258
 1824WAT      O 7361   1.214   3.323   1.521
 1824WAT     H1 7362   1.254   3.393   1.572
 1824WAT     H2 7363   1.262   3.244   1.546
 1824WAT    EPW 7364   1.226   3.322   1.531
 1825WAT      O 7365   1.950   4.082   2.551
 1825WAT     H1 7366   2.043   4.101   2.563
 1825WAT     H2 7367   1.916   4.158   2.504
 1825WAT    EPW 7368   1.958   4.095   2.547
 1826WAT      O 7369   1.548   3.393   0.446
 1826WAT     H1 7370   1.483   3.463   0.440
 1826WAT     H2 7371   1.497   3.312   0.445
 1826WAT    EPW 7372   1.533   3.392   0.445
 1827WAT      O 7373   1.303   0.161   1.477
 1827WAT     H1 7374   1.333   0.243   1.437
 1827WAT     H2 7375   1.370   0.139   1.541
 1827WAT    EPW 7376   1.315   0.169   1.480
 1828WAT      O 7377   0.417   3.133   0.493
 1828WAT     H1 7378   0.425   3.186   0.572
 1828WAT     H2 7379   0.375   3.191   0.429
 1828WAT    EPW 7380   0.413   3.148   0.495
 1829WAT      O 7381   1.954   2.644   2.096
 1829WAT     H1 7382   1.956   2.734   2.130
 1829WAT     H2 7383   1.912   2.593   2.165
 1829WAT    EPW 7384   1.948   2.649   2.110
 1830WAT      O 7385   2.535   3.111   1.998
 1830WAT     H1 7386   2.551   3.052   1.924
 1830WAT     H2 7387   2.535   3.054   2.075
 1830WAT    EPW 7388   2.537   3.096   1.999
 1831WAT      O 7389   2.196   0.661   2.110
 1831WAT     H1 7390   2.137   0.644   2.183
 1831WAT     H2 7391   2.278   0.618   2.134
 1831WAT    EPW 7392   2.199   0.653   2.123
 1832WAT      O 7393   2.049   1.510   3.077
 1832WAT     H1 7394   2.032   1.478   3.166
 1832WAT     H2 7395   1.975   1.567   3.058
 1832WAT    EPW 7396   2.037   1.513   3.086
 1833WAT      O 7397   0.190   1.326   1.009
 1833WAT     H1 7398   0.164   1.305   0.919
 1833WAT     H2 7399   0.196   1.241   1.052
 1833WAT    EPW 7400   0.187   1.312   1.002
 1834WAT      O 7401   2.900   0.063   1.596
 1834WAT     H1 7402   2.951   0.144   1.591
 1834WAT     H2 7403   2.859   0.055   1.510
 1834WAT    EPW 7404   2.901   0.073   1.584
 1835WAT      O 7405   2.684   1.319   0.476
 1835WAT     H1 7406   2.686   1.412   0.498
 1835WAT     H2 7407   2.623   1.280   0.538
 1835WAT    EPW 7408   2.676   1.326   0.487
 1836WAT      O 7409   3.074   1.981   3.340
 1836WAT     H1 7410   2.988   2.016   3.319
 1836WAT     H2 7411   3.101   1.933   3.262
 1836WAT    EPW 7412   3.066   1.979   3.327
 1837WAT      O 7413   1.010   4.107   1.482
 1837WAT     H1 7414   1.067   4.033   1.505
 1837WAT     H2 7415   0.924   4.082   1.517
 1837WAT    EPW 7416   1.006   4.094   1.490
 1838WAT      O 7417   1.524   0.280   1.194
 1838WAT     H1 7418   1.483   0.316   1.273
 1838WAT     H2 7419   1.466   0.308   1.122
 1838WAT    EPW 7420   1.511   0.289   1.195
 1839WAT      O 7421   3.209   1.012   0.622
 1839WAT     H1 7422   3.148   0.956   0.670
 1839WAT     H2 7423   3.294   0.992   0.661
 1839WAT    EPW 7424   3.212   1.002   0.634
 1840WAT      O 7425   1.027   2.494   0.910
 1840WAT     H1 7426   1.112   2.456   0.890
 1840WAT     H2 7427   0.965   2.444   0.857
 1840WAT    EPW 7428   1.030   2.482   0.901
 1841WAT      O 7429   1.227   0.407   2.566
 1841WAT     H1 7430   1.176   0.412   2.485
 1841WAT     H2 7431   1.162   0.386   2.633
 1841WAT    EPW 7432   1.212   0.405   2.564
 1842WAT      O 7433   0.284   0.892   3.484
 1842WAT     H1 7434   0.239   0.969   3.449
 1842WAT     H2 7435   0.361   0.882   3.429
 1842WAT    EPW 7436   0.288   0.900   3.472
 1843WAT      O 7437   2.942   3.085   2.927
 1843WAT     H1 7438   2.908   3.172   2.949
 1843WAT     H2 7439   2.986   3.097   2.843
 1843WAT    EPW 7440   2.943   3.098   2.919
 1844WAT      O 7441   2.136   1.056   2.652
 1844WAT     H1 7442   2.061   1.018   2.698
 1844WAT     H2 7443   2.097   1.107   2.581
 1844WAT    EPW 7444   2.121   1.057   2.648
 1845WAT      O 7445   0.416   2.818   0.825
 1845WAT     H1 7446   0.469   2.872   0.883
 1845WAT     H2 7447   0.459   2.826   0.739
 1845WAT    EPW 7448   0.429   2.826   0.821
 1846WAT      O 7449   2.953   1.832   0.653
 1846WAT     H1 7450   2.940   1.820   0.747
 1846WAT     H2 7451   3.047   1.818   0.640
 1846WAT    EPW 7452   2.963   1.829   0.664
 1847WAT      O 7453   0.062   0.107   1.515
 1847WAT     H1 7454   0.053   0.200   1.536
 1847WAT     H2 7455  -0.027   0.073   1.515
 1847WAT    EPW 7456   0.049   0.115   1.518
 1848WAT      O 7457   0.098   1.906   0.480
 1848WAT     H1 7458   0.146   1.969   0.533
 1848WAT     H2 7459   0.070   1.838   0.542
 1848WAT    EPW 7460   0.100   1.905   0.495
 1849WAT      O 7461   1.510   3.628   3.850
 1849WAT     H1 7462   1.449   3.613   3.778
 1849WAT     H2 7463   1.543   3.716   3.835
 1849WAT    EPW 7464   1.506   3.638   3.839
 1850WAT      O 7465   0.845   1.271   2.499
 1850WAT     H1 7466   0.858   1.196   2.556
 1850WAT     H2 7467   0.918   1.330   2.519
 1850WAT    EPW 7468   0.856   1.269   2.509
 1851WAT      O 7469   2.970   0.075   2.074
 1851WAT     H1 7470   3.061   0.099   2.093
 1851WAT     H2 7471   2.970  -0.020   2.078
 1851WAT    EPW 7472   2.982   0.066   2.077
 1852WAT      O 7473   3.358   2.972   2.762
 1852WAT     H1 7474   3.320   2.924   2.835
 1852WAT     H2 7475   3.442   3.004   2.795
 1852WAT    EPW 7476   3.364   2.969   2.776
 1853WAT      O 7477   1.005   3.153   3.044
 1853WAT     H1 7478   1.029   3.243   3.066
 1853WAT     H2 7479   0.914   3.145   3.074
 1853WAT    EPW 7480   0.996   3.164   3.051
 1854WAT      O 7481   3.681   1.497   0.411
 1854WAT     H1 7482   3.733   1.432   0.458
 1854WAT     H2 7483   3.610   1.448   0.371
 1854WAT    EPW 7484   3.679   1.482   0.412
 1855WAT      O 7485   0.646   0.337   3.721
 1855WAT     H1 7486   0.586   0.406   3.695
 1855WAT     H2 7487   0.729   0.381   3.736
 1855WAT    EPW 7488   0.649   0.352   3.720
 1856WAT      O 7489   0.657   1.333   2.740
 1856WAT     H1 7490   0.652   1.285   2.658
 1856WAT     H2 7491   0.729   1.395   2.727
 1856WAT    EPW 7492   0.666   1.335   2.728
 1857WAT      O 7493   0.236   2.512   1.277
 1857WAT     H1 7494   0.261   2.431   1.322
 1857WAT     H2 7495   0.183   2.559   1.341
 1857WAT    EPW 7496   0.233   2.507   1.292
 1858WAT      O 7497   3.108   1.003   2.079
 1858WAT     H1 7498   3.151   0.929   2.121
 1858WAT     H2 7499   3.171   1.075   2.089
 1858WAT    EPW 7500   3.122   1.003   2.086
 1859WAT      O 7501   1.720   0.150   2.292
 1859WAT     H1 7502   1.673   0.070   2.316
 1859WAT     H2 7503   1.657   0.200   2.241
 1859WAT    EPW 7504   1.705   0.146   2.288
 1860WAT      O 7505   2.129   1.801   3.046
 1860WAT     H1 7506   2.163   1.884   3.079
 1860WAT     H2 7507   2.089   1.823   2.962
 1860WAT    EPW 7508   2.128   1.815   3.039
 1861WAT      O 7509   3.089   3.789   0.310
 1861WAT     H1 7510   3.149   3.819   0.242
 1861WAT     H2 7511   3.007   3.835   0.292
 1861WAT    EPW 7512   3.086   3.799   0.299
 1862WAT      O 7513   0.848   1.999   1.258
 1862WAT     H1 7514   0.876   2.090   1.256
 1862WAT     H2 7515   0.758   2.002   1.290
 1862WAT    EPW 7516   0.840   2.011   1.262
 1863WAT      O 7517   3.413   0.906   2.700
 1863WAT     H1 7518   3.405   0.912   2.795
 1863WAT     H2 7519   3.507   0.909   2.683
 1863WAT    EPW 7520   3.425   0.907   2.710
 1864WAT      O 7521   2.753   3.866   1.580
 1864WAT     H1 7522   2.827   3.919   1.552
 1864WAT     H2 7523   2.776   3.777   1.555
 1864WAT    EPW 7524   2.766   3.861   1.573
 1865WAT      O 7525   1.971   2.903   2.622
 1865WAT     H1 7526   1.935   2.817   2.597
 1865WAT     H2 7527   1.978   2.899   2.718
 1865WAT    EPW 7528   1.967   2.891   2.631
 1866WAT      O 7529   0.701   0.194   0.528
 1866WAT     H1 7530   0.753   0.115   0.541
 1866WAT     H2 7531   0.643   0.173   0.455
 1866WAT    EPW 7532   0.700   0.181   0.520
 1867WAT      O 7533   2.224   0.959   3.628
 1867WAT     H1 7534   2.209   0.864   3.632
 1867WAT     H2 7535   2.163   0.995   3.693
 1867WAT    EPW 7536   2.214   0.951   3.637
 1868WAT      O 7537   1.675   1.436   1.161
 1868WAT     H1 7538   1.717   1.461   1.078
 1868WAT     H2 7539   1.703   1.503   1.223
 1868WAT    EPW 7540   1.684   1.448   1.158
 1869WAT      O 7541   3.573   3.668   4.027
 1869WAT     H1 7542   3.608   3.579   4.020
 1869WAT     H2 7543   3.650   3.723   4.042
 1869WAT    EPW 7544   3.588   3.664   4.028
 1870WAT      O 7545   0.552   2.838   3.353
 1870WAT     H1 7546   0.541   2.869   3.263
 1870WAT     H2 7547   0.614   2.900   3.392
 1870WAT    EPW 7548   0.559   2.850   3.346
 1871WAT      O 7549   3.225   0.973   1.245
 1871WAT     H1 7550   3.201   1.058   1.283
 1871WAT     H2 7551   3.144   0.940   1.207
 1871WAT    EPW 7552   3.211   0.980   1.245
 1872WAT      O 7553   2.547   3.458   3.255
 1872WAT     H1 7554   2.630   3.479   3.297
 1872WAT     H2 7555   2.526   3.370   3.286
 1872WAT    EPW 7556   2.555   3.450   3.264
 1873WAT      O 7557   3.711   0.815   3.260
 1873WAT     H1 7558   3.641   0.880   3.260
 1873WAT     H2 7559   3.681   0.747   3.320
 1873WAT    EPW 7560   3.698   0.815   3.268
 1874WAT      O 7561   2.813   0.565   2.669
 1874WAT     H1 7562   2.759   0.525   2.602
 1874WAT     H2 7563   2.902   0.564   2.632
 1874WAT    EPW 7564   2.818   0.560   2.655
 1875WAT      O 7565   3.350   3.148   0.560
 1875WAT     H1 7566   3.385   3.229   0.597
 1875WAT     H2 7567   3.358   3.083   0.630
 1875WAT    EPW 7568   3.355   3.150   0.574
 1876WAT      O 7569   3.291   3.338   2.487
 1876WAT     H1 7570   3.220   3.366   2.429
 1876WAT     H2 7571   3.313   3.416   2.537
 1876WAT    EPW 7572   3.285   3.352   2.486
 1877WAT      O 7573   2.964   1.577   3.807
 1877WAT     H1 7574   2.954   1.604   3.898
 1877WAT     H2 7575   3.018   1.498   3.811
 1877WAT    EPW 7576   2.970   1.570   3.819
 1878WAT      O 7577   2.619   2.408   3.159
 1878WAT     H1 7578   2.603   2.318   3.186
 1878WAT     H2 7579   2.550   2.459   3.202
 1878WAT    EPW 7580   2.608   2.403   3.168
 1879WAT      O 7581   0.502   3.204   3.772
 1879WAT     H1 7582   0.484   3.138   3.840
 1879WAT     H2 7583   0.596   3.196   3.757
 1879WAT    EPW 7584   0.512   3.194   3.779
 1880WAT      O 7585   3.400   2.358   0.752
 1880WAT     H1 7586   3.349   2.407   0.688
 1880WAT     H2 7587   3.337   2.334   0.819
 1880WAT    EPW 7588   3.385   2.361   0.752
 1881WAT      O 7589   2.224   3.132   2.050
 1881WAT     H1 7590   2.193   3.197   1.986
 1881WAT     H2 7591   2.319   3.145   2.053
 1881WAT    EPW 7592   2.232   3.143   2.042
 1882WAT      O 7593   1.997   0.116   0.740
 1882WAT     H1 7594   1.908   0.083   0.754
 1882WAT     H2 7595   2.002   0.132   0.646
 1882WAT    EPW 7596   1.986   0.114   0.730
 1883WAT      O 7597   0.472   0.330   2.158
 1883WAT     H1 7598   0.415   0.403   2.184
 1883WAT     H2 7599   0.559   0.354   2.190
 1883WAT    EPW 7600   0.476   0.343   2.166
 1884WAT      O 7601   0.379   2.971   3.945
 1884WAT     H1 7602   0.375   2.877   3.962
 1884WAT     H2 7603   0.416   3.008   4.025
 1884WAT    EPW 7604   0.384   2.963   3.958
 1885WAT      O 7605   2.419   3.633   2.775
 1885WAT     H1 7606   2.514   3.639   2.767
 1885WAT     H2 7607   2.404   3.556   2.829
 1885WAT    EPW 7608   2.429   3.624   2.781
 1886WAT      O 7609   3.347   2.397   2.759
 1886WAT     H1 7610   3.402   2.473   2.741
 1886WAT     H2 7611   3.287   2.427   2.827
 1886WAT    EPW 7612   3.347   2.411   2.766
 1887WAT      O 7613   0.578   1.394   1.552
 1887WAT     H1 7614   0.508   1.358   1.607
 1887WAT     H2 7615   0.658   1.372   1.599
 1887WAT    EPW 7616   0.579   1.386   1.565
 1888WAT      O 7617   0.728   2.572   1.855
 1888WAT     H1 7618   0.763   2.485   1.833
 1888WAT     H2 7619   0.745   2.625   1.777
 1888WAT    EPW 7620   0.735   2.567   1.842
 1889WAT      O 7621   2.025   0.534   3.069
 1889WAT     H1 7622   1.994   0.475   3.000
 1889WAT     H2 7623   2.110   0.565   3.037
 1889WAT    EPW 7624   2.032   0.531   3.055
 1890WAT      O 7625   0.169   2.594   3.794
 1890WAT     H1 7626   0.119   2.667   3.757
 1890WAT     H2 7627   0.122   2.570   3.874
 1890WAT    EPW 7628   0.156   2.600   3.799
 1891WAT      O 7629   0.316   1.376   2.915
 1891WAT     H1 7630   0.347   1.300   2.866
 1891WAT     H2 7631   0.385   1.442   2.903
 1891WAT    EPW 7632   0.329   1.375   2.907
 1892WAT      O 7633   2.557   1.221   0.746
 1892WAT     H1 7634   2.609   1.141   0.739
 1892WAT     H2 7635   2.469   1.196   0.716
 1892WAT    EPW 7636   2.552   1.207   0.741
 1893WAT      O 7637   1.800   2.395   0.733
 1893WAT     H1 7638   1.762   2.312   0.760
 1893WAT     H2 7639   1.878   2.405   0.788
 1893WAT    EPW 7640   1.805   2.385   0.744
 1894WAT      O 7641   3.591   0.338   2.377
 1894WAT     H1 7642   3.670   0.383   2.347
 1894WAT     H2 7643   3.543   0.318   2.297
 1894WAT    EPW 7644   3.595   0.341   2.363
 1895WAT      O 7645   0.671   0.290   0.199
 1895WAT     H1 7646   0.704   0.366   0.246
 1895WAT     H2 7647   0.576   0.296   0.206
 1895WAT    EPW 7648   0.663   0.301   0.206
 1896WAT      O 7649   1.548   3.270   1.161
 1896WAT     H1 7650   1.569   3.303   1.249
 1896WAT     H2 7651   1.463   3.308   1.141
 1896WAT    EPW 7652   1.540   3.279   1.170
 1897WAT      O 7653   3.669   3.866   1.469
 1897WAT     H1 7654   3.619   3.916   1.404
 1897WAT     H2 7655   3.669   3.776   1.435
 1897WAT    EPW 7656   3.662   3.861   1.456
 1898WAT      O 7657   2.658   0.534   1.211
 1898WAT     H1 7658   2.730   0.592   1.237
 1898WAT     H2 7659   2.579   0.579   1.243
 1898WAT    EPW 7660   2.657   0.548   1.218
 1899WAT      O 7661   1.144   3.974   0.061
 1899WAT     H1 7662   1.220   3.981   0.004
 1899WAT     H2 7663   1.152   4.050   0.120
 1899WAT    EPW 7664   1.155   3.985   0.061
 1900WAT      O 7665   1.909   1.554   3.560
 1900WAT     H1 7666   1.957   1.604   3.626
 1900WAT     H2 7667   1.817   1.573   3.578
 1900WAT    EPW 7668   1.903   1.563   3.571
 1901WAT      O 7669   0.155   2.574   0.753
 1901WAT     H1 7670   0.131   2.665   0.770
 1901WAT     H2 7671   0.135   2.528   0.834
 1901WAT    EPW 7672   0.149   2.580   0.766
 1902WAT      O 7673   1.514   3.286   2.133
 1902WAT     H1 7674   1.470   3.341   2.069
 1902WAT     H2 7675   1.444   3.237   2.175
 1902WAT    EPW 7676   1.499   3.286   2.130
 1903WAT      O 7677   0.650   3.003   1.956
 1903WAT     H1 7678   0.673   3.068   2.021
 1903WAT     H2 7679   0.595   3.050   1.893
 1903WAT    EPW 7680   0.646   3.018   1.956
 1904WAT      O 7681   3.311   1.693   1.937
 1904WAT     H1 7682   3.297   1.779   1.978
 1904WAT     H2 7683   3.383   1.655   1.986
 1904WAT    EPW 7684   3.319   1.700   1.949
 1905WAT      O 7685   1.950   2.298   1.883
 1905WAT     H1 7686   1.973   2.239   1.955
 1905WAT     H2 7687   2.032   2.340   1.858
 1905WAT    EPW 7688   1.964   2.296   1.889
 1906WAT      O 7689   1.021   0.486   0.108
 1906WAT     H1 7690   1.041   0.438   0.028
 1906WAT     H2 7691   1.088   0.457   0.170
 1906WAT    EPW 7692   1.033   0.476   0.106
 1907WAT      O 7693   0.748   1.304   0.564
 1907WAT     H1 7694   0.743   1.210   0.582
 1907WAT     H2 7695   0.776   1.310   0.473
 1907WAT    EPW 7696   0.751   1.293   0.555
 1908WAT      O 7697   3.276   2.612   3.855
 1908WAT     H1 7698   3.271   2.539   3.793
 1908WAT     H2 7699   3.185   2.632   3.877
 1908WAT    EPW 7700   3.264   2.605   3.850
 1909WAT      O 7701   2.246   0.701   3.900
 1909WAT     H1 7702   2.263   0.733   3.989
 1909WAT     H2 7703   2.326   0.723   3.851
 1909WAT    EPW 7704   2.259   0.708   3.905
 1910WAT      O 7705   1.623   1.729   0.148
 1910WAT     H1 7706   1.600   1.821   0.163
 1910WAT     H2 7707   1.543   1.691   0.111
 1910WAT    EPW 7708   1.609   1.736   0.145
 1911WAT      O 7709   2.299   4.055   1.775
 1911WAT     H1 7710   2.221   4.016   1.735
 1911WAT     H2 7711   2.268   4.137   1.812
 1911WAT    EPW 7712   2.284   4.061   1.775
 1912WAT      O 7713   2.913   1.358   1.943
 1912WAT     H1 7714   2.949   1.270   1.946
 1912WAT     H2 7715   2.852   1.362   2.016
 1912WAT    EPW 7716   2.910   1.347   1.953
 1913WAT      O 7717   2.585   1.331   0.139
 1913WAT     H1 7718   2.631   1.317   0.056
 1913WAT     H2 7719   2.493   1.338   0.115
 1913WAT    EPW 7720   2.579   1.330   0.125
 1914WAT      O 7721   1.769   3.297   3.378
 1914WAT     H1 7722   1.752   3.206   3.353
 1914WAT     H2 7723   1.689   3.344   3.352
 1914WAT    EPW 7724   1.756   3.291   3.371
 1915WAT      O 7725   2.042   4.025   3.253
 1915WAT     H1 7726   2.067   4.113   3.223
 1915WAT     H2 7727   2.088   3.966   3.194
 1915WAT    EPW 7728   2.051   4.029   3.241
 1916WAT      O 7729   0.897   2.977   1.383
 1916WAT     H1 7730   0.905   2.969   1.478
 1916WAT     H2 7731   0.855   2.895   1.355
 1916WAT    EPW 7732   0.892   2.965   1.392
 1917WAT      O 7733   2.553   1.298   2.823
 1917WAT     H1 7734   2.633   1.341   2.853
 1917WAT     H2 7735   2.497   1.297   2.901
 1917WAT    EPW 7736   2.556   1.304   2.837
 1918WAT      O 7737   3.126   1.988   1.632
 1918WAT     H1 7738   3.111   2.018   1.543
 1918WAT     H2 7739   3.049   2.018   1.681
 1918WAT    EPW 7740   3.114   1.996   1.627
 1919WAT      O 7741   0.848   0.819   2.152
 1919WAT     H1 7742   0.831   0.821   2.058
 1919WAT     H2 7743   0.770   0.858   2.191
 1919WAT    EPW 7744   0.835   0.824   2.145
 1920WAT      O 7745   3.303   1.582   3.084
 1920WAT     H1 7746   3.222   1.547   3.121
 1920WAT     H2 7747   3.373   1.531   3.125
 1920WAT    EPW 7748   3.302   1.571   3.094
 1921WAT      O 7749   0.118   3.651   1.929
 1921WAT     H1 7750   0.030   3.685   1.911
 1921WAT     H2 7751   0.113   3.559   1.904
 1921WAT    EPW 7752   0.106   3.643   1.923
 1922WAT      O 7753   0.518   1.871   0.375
 1922WAT     H1 7754   0.517   1.908   0.287
 1922WAT     H2 7755   0.545   1.780   0.363
 1922WAT    EPW 7756   0.522   1.864   0.362
 1923WAT      O 7757   0.963   1.062   2.016
 1923WAT     H1 7758   1.027   1.042   1.947
 1923WAT     H2 7759   0.915   1.138   1.982
 1923WAT    EPW 7760   0.965   1.070   2.002
 1924WAT      O 7761   1.978   2.174   3.108
 1924WAT     H1 7762   1.933   2.095   3.077
 1924WAT     H2 7763   1.936   2.246   3.062
 1924WAT    EPW 7764   1.967   2.173   3.098
 1925WAT      O 7765   3.189   1.440   0.712
 1925WAT     H1 7766   3.228   1.376   0.771
 1925WAT     H2 7767   3.126   1.487   0.767
 1925WAT    EPW 7768   3.186   1.438   0.727
 1926WAT      O 7769   0.696   0.174   1.481
 1926WAT     H1 7770   0.747   0.240   1.529
 1926WAT     H2 7771   0.721   0.186   1.390
 1926WAT    EPW 7772   0.706   0.184   1.475
 1927WAT      O 7773   0.627   1.081   0.137
 1927WAT     H1 7774   0.665   1.154   0.186
 1927WAT     H2 7775   0.612   1.013   0.203
 1927WAT    EPW 7776   0.630   1.081   0.152
 1928WAT      O 7777   0.508   3.907   0.684
 1928WAT     H1 7778   0.486   4.000   0.684
 1928WAT     H2 7779   0.535   3.889   0.594
 1928WAT    EPW 7780   0.509   3.917   0.672
 1929WAT      O 7781   1.081   3.982   3.535
 1929WAT     H1 7782   1.153   3.922   3.556
 1929WAT     H2 7783   1.114   4.037   3.464
 1929WAT    EPW 7784   1.095   3.981   3.529
 1930WAT      O 7785   3.434   2.296   2.470
 1930WAT     H1 7786   3.417   2.389   2.456
 1930WAT     H2 7787   3.413   2.281   2.562
 1930WAT    EPW 7788   3.429   2.306   2.480
 1931WAT      O 7789   2.057   3.702   1.244
 1931WAT     H1 7790   2.041   3.794   1.263
 1931WAT     H2 7791   2.063   3.660   1.329
 1931WAT    EPW 7792   2.056   3.709   1.257
 1932WAT      O 7793   1.936   3.535   3.313
 1932WAT     H1 7794   1.940   3.507   3.405
 1932WAT     H2 7795   1.892   3.462   3.269
 1932WAT    EPW 7796   1.930   3.522   3.320
 1933WAT      O 7797   1.374   2.091   3.656
 1933WAT     H1 7798   1.354   2.013   3.603
 1933WAT     H2 7799   1.443   2.063   3.715
 1933WAT    EPW 7800   1.380   2.077   3.657
 1934WAT      O 7801   2.089   3.047   1.397
 1934WAT     H1 7802   2.097   3.105   1.321
 1934WAT     H2 7803   2.042   2.970   1.363
 1934WAT    EPW 7804   2.084   3.044   1.382
 1935WAT      O 7805   2.679   2.456   0.690
 1935WAT     H1 7806   2.627   2.510   0.630
 1935WAT     H2 7807   2.645   2.478   0.777
 1935WAT    EPW 7808   2.668   2.466   0.693
 1936WAT      O 7809   3.529   3.344   3.761
 1936WAT     H1 7810   3.504   3.415   3.702
 1936WAT     H2 7811   3.547   3.388   3.844
 1936WAT    EPW 7812   3.528   3.359   3.764
 1937WAT      O 7813   3.723   2.292   2.715
 1937WAT     H1 7814   3.642   2.247   2.692
 1937WAT     H2 7815   3.695   2.365   2.771
 1937WAT    EPW 7816   3.709   2.296   2.719
 1938WAT      O 7817   0.187   3.083   1.860
 1938WAT     H1 7818   0.257   3.147   1.847
 1938WAT     H2 7819   0.231   3.005   1.893
 1938WAT    EPW 7820   0.202   3.081   1.862
 1939WAT      O 7821   1.588   3.300   2.402
 1939WAT     H1 7822   1.562   3.303   2.310
 1939WAT     H2 7823   1.676   3.336   2.403
 1939WAT    EPW 7824   1.596   3.305   2.390
 1940WAT      O 7825   0.551   1.799   3.166
 1940WAT     H1 7826   0.584   1.709   3.154
 1940WAT     H2 7827   0.627   1.854   3.148
 1940WAT    EPW 7828   0.565   1.794   3.162
 1941WAT      O 7829   1.573   3.321   1.434
 1941WAT     H1 7830   1.519   3.295   1.509
 1941WAT     H2 7831   1.624   3.395   1.466
 1941WAT    EPW 7832   1.572   3.327   1.448
 1942WAT      O 7833   2.320   2.305   0.618
 1942WAT     H1 7834   2.387   2.246   0.653
 1942WAT     H2 7835   2.325   2.292   0.523
 1942WAT    EPW 7836   2.330   2.296   0.610
 1943WAT      O 7837   1.471   0.623   0.823
 1943WAT     H1 7838   1.512   0.546   0.863
 1943WAT     H2 7839   1.542   0.686   0.813
 1943WAT    EPW 7840   1.486   0.621   0.827
 1944WAT      O 7841   3.666   0.247   3.415
 1944WAT     H1 7842   3.674   0.203   3.500
 1944WAT     H2 7843   3.734   0.315   3.417
 1944WAT    EPW 7844   3.676   0.250   3.427
 1945WAT      O 7845   1.868   1.428   1.637
 1945WAT     H1 7846   1.817   1.471   1.706
 1945WAT     H2 7847   1.889   1.499   1.575
 1945WAT    EPW 7848   1.864   1.443   1.638
 1946WAT      O 7849   2.257   0.136   1.181
 1946WAT     H1 7850   2.332   0.085   1.212
 1946WAT     H2 7851   2.288   0.175   1.099
 1946WAT    EPW 7852   2.271   0.134   1.174
 1947WAT      O 7853   2.844   2.342   1.055
 1947WAT     H1 7854   2.887   2.422   1.024
 1947WAT     H2 7855   2.761   2.340   1.008
 1947WAT    EPW 7856   2.839   2.353   1.045
 1948WAT      O 7857   2.436   3.747   2.271
 1948WAT     H1 7858   2.349   3.773   2.302
 1948WAT     H2 7859   2.420   3.677   2.208
 1948WAT    EPW 7860   2.423   3.742   2.266
 1949WAT      O 7861   3.716   1.814   2.260
 1949WAT     H1 7862   3.688   1.748   2.324
 1949WAT     H2 7863   3.755   1.763   2.189
 1949WAT    EPW 7864   3.717   1.798   2.259
 1950WAT      O 7865   0.641   0.847   0.413
 1950WAT     H1 7866   0.554   0.832   0.452
 1950WAT     H2 7867   0.701   0.804   0.474
 1950WAT    EPW 7868   0.637   0.839   0.426
 1951WAT      O 7869   2.725   3.001   1.782
 1951WAT     H1 7870   2.761   2.924   1.737
 1951WAT     H2 7871   2.717   3.067   1.714
 1951WAT    EPW 7872   2.729   3.000   1.767
 1952WAT      O 7873   3.641   3.377   2.567
 1952WAT     H1 7874   3.689   3.406   2.645
 1952WAT     H2 7875   3.687   3.298   2.538
 1952WAT    EPW 7876   3.653   3.370   2.573
 1953WAT      O 7877   0.636   0.992   2.219
 1953WAT     H1 7878   0.554   0.956   2.185
 1953WAT     H2 7879   0.611   1.074   2.262
 1953WAT    EPW 7880   0.622   0.998   2.220
 1954WAT      O 7881   2.023   0.050   1.488
 1954WAT     H1 7882   1.974   0.084   1.563
 1954WAT     H2 7883   2.003   0.111   1.417
 1954WAT    EPW 7884   2.013   0.063   1.488
 1955WAT      O 7885   0.533   0.879   3.356
 1955WAT     H1 7886   0.537   0.974   3.365
 1955WAT     H2 7887   0.585   0.845   3.428
 1955WAT    EPW 7888   0.540   0.887   3.366
 1956WAT      O 7889   2.851   4.053   2.468
 1956WAT     H1 7890   2.945   4.039   2.452
 1956WAT     H2 7891   2.811   4.047   2.381
 1956WAT    EPW 7892   2.858   4.050   2.454
 1957WAT      O 7893   1.774   1.586   2.990
 1957WAT     H1 7894   1.689   1.578   3.033
 1957WAT     H2 7895   1.758   1.641   2.913
 1957WAT    EPW 7896   1.761   1.592   2.986
 1958WAT      O 7897   0.237   3.648   2.232
 1958WAT     H1 7898   0.202   3.648   2.143
 1958WAT     H2 7899   0.236   3.556   2.258
 1958WAT    EPW 7900   0.232   3.636   2.224
 1959WAT      O 7901   1.920   1.010   1.764
 1959WAT     H1 7902   1.923   1.090   1.712
 1959WAT     H2 7903   2.006   0.971   1.754
 1959WAT    EPW 7904   1.932   1.016   1.756
 1960WAT      O 7905   2.311   0.394   3.702
 1960WAT     H1 7906   2.388   0.416   3.755
 1960WAT     H2 7907   2.268   0.323   3.751
 1960WAT    EPW 7908   2.316   0.387   3.715
 1961WAT      O 7909   3.633   2.597   1.369
 1961WAT     H1 7910   3.650   2.518   1.317
 1961WAT     H2 7911   3.560   2.639   1.324
 1961WAT    EPW 7912   3.625   2.592   1.356
 1962WAT      O 7913   1.396   2.279   3.448
 1962WAT     H1 7914   1.306   2.271   3.418
 1962WAT     H2 7915   1.408   2.206   3.509
 1962WAT    EPW 7916   1.386   2.269   3.452
 1963WAT      O 7917   2.758   1.508   1.434
 1963WAT     H1 7918   2.771   1.452   1.511
 1963WAT     H2 7919   2.767   1.597   1.467
 1963WAT    EPW 7920   2.761   1.512   1.449
 1964WAT      O 7921   3.609   1.056   0.915
 1964WAT     H1 7922   3.689   1.095   0.878
 1964WAT     H2 7923   3.627   1.048   1.009
 1964WAT    EPW 7924   3.622   1.060   0.922
 1965WAT      O 7925   3.689   0.319   1.982
 1965WAT     H1 7926   3.762   0.353   2.033
 1965WAT     H2 7927   3.707   0.226   1.972
 1965WAT    EPW 7928   3.701   0.312   1.987
 1966WAT      O 7929   2.822   4.075   3.755
 1966WAT     H1 7930   2.859   4.009   3.697
 1966WAT     H2 7931   2.858   4.158   3.723
 1966WAT    EPW 7932   2.831   4.078   3.743
 1967WAT      O 7933   3.370   1.785   2.835
 1967WAT     H1 7934   3.367   1.878   2.814
 1967WAT     H2 7935   3.297   1.747   2.787
 1967WAT    EPW 7936   3.360   1.792   2.826
 1968WAT      O 7937   1.251   3.132   0.835
 1968WAT     H1 7938   1.247   3.214   0.786
 1968WAT     H2 7939   1.258   3.159   0.927
 1968WAT    EPW 7940   1.251   3.146   0.841
 1969WAT      O 7941   1.046   3.969   1.849
 1969WAT     H1 7942   0.957   4.004   1.838
 1969WAT     H2 7943   1.062   3.921   1.767
 1969WAT    EPW 7944   1.036   3.967   1.836
 1970WAT      O 7945   1.741   2.765   0.155
 1970WAT     H1 7946   1.674   2.790   0.092
 1970WAT     H2 7947   1.717   2.675   0.181
 1970WAT    EPW 7948   1.729   2.756   0.150
 1971WAT      O 7949   2.127   1.977   1.603
 1971WAT     H1 7950   2.113   1.965   1.697
 1971WAT     H2 7951   2.065   2.046   1.578
 1971WAT    EPW 7952   2.117   1.985   1.612
 1972WAT      O 7953   0.949   2.837   3.705
 1972WAT     H1 7954   0.886   2.781   3.751
 1972WAT     H2 7955   1.017   2.777   3.674
 1972WAT    EPW 7956   0.949   2.822   3.707
 1973WAT      O 7957   1.124   2.180   1.574
 1973WAT     H1 7958   1.208   2.136   1.560
 1973WAT     H2 7959   1.122   2.199   1.668
 1973WAT    EPW 7960   1.135   2.177   1.585
 1974WAT      O 7961   0.539   3.642   2.564
 1974WAT     H1 7962   0.450   3.670   2.543
 1974WAT     H2 7963   0.565   3.698   2.637
 1974WAT    EPW 7964   0.531   3.653   2.571
 1975WAT      O 7965   0.937   3.542   0.194
 1975WAT     H1 7966   0.978   3.457   0.211
 1975WAT     H2 7967   1.011   3.601   0.178
 1975WAT    EPW 7968   0.952   3.539   0.194
 1976WAT      O 7969   3.078   3.181   0.602
 1976WAT     H1 7970   3.013   3.179   0.532
 1976WAT     H2 7971   3.161   3.162   0.558
 1976WAT    EPW 7972   3.081   3.178   0.587
 1977WAT      O 7973   1.640   3.410   0.136
 1977WAT     H1 7974   1.633   3.329   0.086
 1977WAT     H2 7975   1.641   3.382   0.227
 1977WAT    EPW 7976   1.639   3.396   0.141
 1978WAT      O 7977   3.534   3.607   0.468
 1978WAT     H1 7978   3.497   3.655   0.394
 1978WAT     H2 7979   3.584   3.674   0.516
 1978WAT    EPW 7980   3.536   3.622   0.465
 1979WAT      O 7981   2.865   2.266   0.761
 1979WAT     H1 7982   2.796   2.332   0.753
 1979WAT     H2 7983   2.898   2.255   0.672
 1979WAT    EPW 7984   2.860   2.273   0.748
 1980WAT      O 7985   2.126   0.605   0.720
 1980WAT     H1 7986   2.055   0.642   0.669
 1980WAT     H2 7987   2.084   0.537   0.773
 1980WAT    EPW 7988   2.111   0.601   0.721
 1981WAT      O 7989   1.756   0.547   2.067
 1981WAT     H1 7990   1.827   0.482   2.067
 1981WAT     H2 7991   1.711   0.534   2.150
 1981WAT    EPW 7992   1.760   0.537   2.078
 1982WAT      O 7993   2.648   1.316   0.991
 1982WAT     H1 7994   2.614   1.262   1.062
 1982WAT     H2 7995   2.613   1.277   0.912
 1982WAT    EPW 7996   2.639   1.304   0.990
 1983WAT      O 7997   0.650   0.239   0.936
 1983WAT     H1 7998   0.653   0.268   1.027
 1983WAT     H2 7999   0.691   0.153   0.937
 1983WAT    EPW 8000   0.656   0.232   0.948
 1984WAT      O 8001   3.464   2.815   0.369
 1984WAT     H1 8002   3.387   2.827   0.313
 1984WAT     H2 8003   3.527   2.880   0.336
 1984WAT    EPW 8004   3.462   2.825   0.357
 1985WAT      O 8005   1.067   2.322   3.998
 1985WAT     H1 8006   1.116   2.405   3.999
 1985WAT     H2 8007   1.005   2.330   4.070
 1985WAT    EPW 8008   1.065   2.334   4.008
 1986WAT      O 8009   3.138   1.495   2.081
 1986WAT     H1 8010   3.069   1.450   2.031
 1986WAT     H2 8011   3.192   1.536   2.014
 1986WAT    EPW 8012   3.136   1.494   2.065
 1987WAT      O 8013   1.550   2.513   4.022
 1987WAT     H1 8014   1.628   2.528   3.969
 1987WAT     H2 8015   1.523   2.601   4.050
 1987WAT    EPW 8016   1.557   2.527   4.019
 1988WAT      O 8017   2.414   3.540   2.079
 1988WAT     H1 8018   2.345   3.572   2.021
 1988WAT     H2 8019   2.474   3.493   2.022
 1988WAT    EPW 8020   2.413   3.538   2.064
 1989WAT      O 8021   0.623   3.759   3.461
 1989WAT     H1 8022   0.583   3.802   3.537
 1989WAT     H2 8023   0.703   3.810   3.445
 1989WAT    EPW 8024   0.629   3.772   3.469
 1990WAT      O 8025   2.734   0.260   2.164
 1990WAT     H1 8026   2.795   0.302   2.224
 1990WAT     H2 8027   2.774   0.270   2.078
 1990WAT    EPW 8028   2.747   0.267   2.160
 1991WAT      O 8029   0.483   2.426   1.838
 1991WAT     H1 8030   0.488   2.340   1.796
 1991WAT     H2 8031   0.575   2.454   1.847
 1991WAT    EPW 8032   0.496   2.419   1.833
 1992WAT      O 8033   3.493   0.230   1.025
 1992WAT     H1 8034   3.471   0.316   0.990
 1992WAT     H2 8035   3.539   0.249   1.107
 1992WAT    EPW 8036   3.497   0.244   1.031
 1993WAT      O 8037   0.681   2.254   0.962
 1993WAT     H1 8038   0.597   2.212   0.944
 1993WAT     H2 8039   0.668   2.296   1.046
 1993WAT    EPW 8040   0.668   2.254   0.970
 1994WAT      O 8041   3.157   3.147   2.714
 1994WAT     H1 8042   3.191   3.180   2.631
 1994WAT     H2 8043   3.229   3.095   2.750
 1994WAT    EPW 8044   3.171   3.145   2.708
 1995WAT      O 8045   1.251   2.618   2.142
 1995WAT     H1 8046   1.193   2.602   2.067
 1995WAT     H2 8047   1.268   2.531   2.178
 1995WAT    EPW 8048   1.246   2.605   2.137
 1996WAT      O 8049   0.771   4.014   1.539
 1996WAT     H1 8050   0.711   4.005   1.614
 1996WAT     H2 8051   0.738   4.089   1.491
 1996WAT    EPW 8052   0.758   4.023   1.543
 1997WAT      O 8053   0.635   2.533   2.969
 1997WAT     H1 8054   0.719   2.577   2.979
 1997WAT     H2 8055   0.574   2.602   2.942
 1997WAT    EPW 8056   0.638   2.548   2.967
 1998WAT      O 8057   2.483   0.781   3.750
 1998WAT     H1 8058   2.571   0.816   3.763
 1998WAT     H2 8059   2.468   0.788   3.655
 1998WAT    EPW 8060   2.492   0.787   3.739
 1999WAT      O 8061   3.346   1.529   2.318
 1999WAT     H1 8062   3.379   1.520   2.228
 1999WAT     H2 8063   3.423   1.524   2.373
 1999WAT    EPW 8064   3.360   1.527   2.313
 2000WAT      O 8065   2.153   2.191   0.938
 2000WAT     H1 8066   2.238   2.156   0.912
 2000WAT     H2 8067   2.166   2.224   1.027
 2000WAT    EPW 8068   2.166   2.191   0.946
 2001WAT      O 8069   2.792   2.739   2.746
 2001WAT     H1 8070   2.776   2.654   2.705
 2001WAT     H2 8071   2.871   2.725   2.800
 2001WAT    EPW 8072   2.801   2.726   2.748
 2002WAT      O 8073   2.350   3.768   1.395
 2002WAT     H1 8074   2.423   3.752   1.336
 2002WAT     H2 8075   2.273   3.773   1.338
 2002WAT    EPW 8076   2.349   3.766   1.380
 2003WAT      O 8077   3.733   3.198   0.159
 2003WAT     H1 8078   3.758   3.140   0.087
 2003WAT     H2 8079   3.671   3.146   0.210
 2003WAT    EPW 8080   3.728   3.184   0.156
 2004WAT      O 8081   3.596   4.065   3.508
 2004WAT     H1 8082   3.612   4.041   3.599
 2004WAT     H2 8083   3.674   4.035   3.461
 2004WAT    EPW 8084   3.608   4.058   3.514
 2005WAT      O 8085   3.677   1.864   0.835
 2005WAT     H1 8086   3.681   1.789   0.776
 2005WAT     H2 8087   3.759   1.911   0.819
 2005WAT    EPW 8088   3.688   1.860   0.825
 2006WAT      O 8089   1.199   4.009   2.088
 2006WAT     H1 8090   1.154   4.005   2.004
 2006WAT     H2 8091   1.251   3.929   2.091
 2006WAT    EPW 8092   1.200   3.998   2.077
 2007WAT      O 8093   0.656   3.175   0.340
 2007WAT     H1 8094   0.578   3.171   0.396
 2007WAT     H2 8095   0.697   3.089   0.351
 2007WAT    EPW 8096   0.651   3.163   0.349
 2008WAT      O 8097   3.254   0.311   0.784
 2008WAT     H1 8098   3.188   0.343   0.723
 2008WAT     H2 8099   3.297   0.239   0.737
 2008WAT    EPW 8100   3.251   0.305   0.770
 2009WAT      O 8101   2.816   0.211   1.863
 2009WAT     H1 8102   2.840   0.174   1.778
 2009WAT     H2 8103   2.878   0.173   1.924
 2009WAT    EPW 8104   2.827   0.201   1.860
 2010WAT      O 8105   1.034   1.937   0.037
 2010WAT     H1 8106   1.012   2.019   0.081
 2010WAT     H2 8107   1.049   1.961  -0.054
 2010WAT    EPW 8108   1.033   1.951   0.031
 2011WAT      O 8109   1.877   1.064   2.752
 2011WAT     H1 8110   1.821   1.113   2.813
 2011WAT     H2 8111   1.828   1.061   2.671
 2011WAT    EPW 8112   1.863   1.070   2.750
 2012WAT      O 8113   0.262   0.306   1.925
 2012WAT     H1 8114   0.228   0.252   1.854
 2012WAT     H2 8115   0.209   0.282   2.001
 2012WAT    EPW 8116   0.251   0.295   1.926
 2013WAT      O 8117   2.804   2.634   0.901
 2013WAT     H1 8118   2.799   2.702   0.968
 2013WAT     H2 8119   2.780   2.678   0.820
 2013WAT    EPW 8120   2.800   2.649   0.899
 2014WAT      O 8121   2.154   2.663   1.685
 2014WAT     H1 8122   2.112   2.594   1.736
 2014WAT     H2 8123   2.169   2.734   1.748
 2014WAT    EPW 8124   2.151   2.663   1.700
 2015WAT      O 8125   1.188   0.042   3.319
 2015WAT     H1 8126   1.268  -0.000   3.287
 2015WAT     H2 8127   1.166   0.106   3.251
 2015WAT    EPW 8128   1.196   0.045   3.306
 2016WAT      O 8129   3.074   2.391   3.195
 2016WAT     H1 8130   3.030   2.308   3.173
 2016WAT     H2 8131   3.011   2.458   3.167
 2016WAT    EPW 8132   3.060   2.389   3.188
 2017WAT      O 8133   2.970   2.331   3.798
 2017WAT     H1 8134   2.882   2.351   3.830
 2017WAT     H2 8135   2.994   2.407   3.746
 2017WAT    EPW 8136   2.961   2.343   3.795
 2018WAT      O 8137   0.756   2.419   1.240
 2018WAT     H1 8138   0.773   2.395   1.331
 2018WAT     H2 8139   0.762   2.515   1.239
 2018WAT    EPW 8140   0.759   2.429   1.252
 2019WAT      O 8141   2.999   0.023   3.459
 2019WAT     H1 8142   3.082   0.060   3.429
 2019WAT     H2 8143   2.965   0.087   3.522
 2019WAT    EPW 8144   3.006   0.036   3.464
 2020WAT      O 8145   3.109   0.639   3.158
 2020WAT     H1 8146   3.108   0.561   3.214
 2020WAT     H2 8147   3.046   0.619   3.089
 2020WAT    EPW 8148   3.100   0.626   3.156
   3.75017   4.11920   4.06799
