Generic title
 8004
    1A5    HO5'    1   0.734   0.445   1.950  1.5463 -0.7752 -1.2030
    1A5     O5'    2   0.781   0.420   2.029 -0.0170  0.1553  0.0750
    1A5     C5'    3   0.924   0.423   1.993  0.1849  0.0682  0.1438
    1A5     H5'    4   0.923   0.367   1.900 -2.1094  1.9553 -1.0819
    1A5    H5''    5   0.983   0.369   2.067 -0.7927  1.6929  2.2039
    1A5     C4'    6   0.981   0.559   1.962  0.1471 -0.6574 -0.4064
    1A5     H4'    7   1.087   0.555   1.937  0.6252  1.6162  0.9857
    1A5     O4'    8   0.908   0.627   1.867  0.5557 -0.2327  0.3593
    1A5     C1'    9   0.910   0.766   1.878 -0.5085 -0.0242 -0.6727
    1A5     H1'   10   0.973   0.813   1.802  2.1791  0.0988  1.4716
    1A5      N9   11   0.777   0.823   1.880 -0.4862 -0.2600 -0.5735
    1A5      C8   12   0.657   0.764   1.889 -0.1685 -0.2296  0.1949
    1A5      H8   13   0.646   0.659   1.913  0.7471 -0.3919 -0.0771
    1A5      N7   14   0.557   0.845   1.875 -0.2719  0.7955  0.3741
    1A5      C5   15   0.620   0.969   1.845  0.0766  0.1948 -0.6178
    1A5      C6   16   0.577   1.100   1.827  0.2553  0.0327  0.5099
    1A5      N6   17   0.453   1.142   1.833  0.1650 -0.2316  0.0726
    1A5     H61   18   0.432   1.236   1.801  1.4178 -0.2307 -0.8107
    1A5     H62   19   0.377   1.076   1.848 -1.0489  1.0298 -0.2760
    1A5      N1   20   0.670   1.197   1.801 -0.1553 -0.4467 -0.2055
    1A5      C2   21   0.796   1.165   1.808 -0.6439  0.0394  0.4945
    1A5      H2   22   0.868   1.246   1.808 -0.9684  0.3879 -1.7989
    1A5      N3   23   0.856   1.049   1.835  0.3361 -0.3116 -0.1963
    1A5      C4   24   0.756   0.957   1.856  0.6394  0.1941 -0.6668
    1A5     C3'   25   0.958   0.649   2.088 -0.2820  0.1630 -0.9806
    1A5     H3'   26   0.854   0.649   2.119  0.4277  3.4402  2.1889
    1A5     C2'   27   0.977   0.785   2.018 -0.5205 -0.2492 -0.2252
    1A5     H2'   28   0.925   0.866   2.069 -0.5207  1.6463 -2.9865
    1A5     O2'   29   1.114   0.814   1.988  0.1126 -0.2530 -0.2160
    1A5    HO2'   30   1.140   0.889   2.041 -0.6373  0.2510 -0.5437
    1A5     O3'   31   1.044   0.610   2.196 -0.8489  0.4585 -0.2593
    2A        P   32   1.036   0.671   2.343  0.2461 -0.1494 -0.3845
    2A      OP1   33   1.140   0.601   2.422  0.3185 -0.2085 -0.0510
    2A      OP2   34   0.891   0.672   2.391  0.1833 -0.5979 -0.1941
    2A      O5'   35   1.077   0.822   2.321  0.7674  0.0464  0.1187
    2A      C5'   36   1.213   0.863   2.290  0.2920 -0.4511  0.8824
    2A      H5'   37   1.263   0.811   2.209 -1.3050 -1.1321  0.2844
    2A     H5''   38   1.271   0.849   2.381  0.8250  2.0105  0.9887
    2A      C4'   39   1.212   1.009   2.247  0.3260  1.1199 -0.2042
    2A      H4'   40   1.312   1.041   2.222  1.3765 -1.8950 -0.2963
    2A      O4'   41   1.118   1.033   2.142  0.1947  0.2787  0.5643
    2A      C1'   42   1.052   1.163   2.148  0.0029 -0.2391 -0.0169
    2A      H1'   43   1.080   1.226   2.063 -0.4653 -0.2186 -0.1595
    2A       N9   44   0.908   1.144   2.155 -0.3864  0.0589  0.3155
    2A       C8   45   0.834   1.047   2.210 -0.1253 -0.0949  0.1709
    2A       H8   46   0.877   0.965   2.265  1.9734  1.0147  0.3089
    2A       N7   47   0.706   1.064   2.213  0.5888  0.4788 -0.4011
    2A       C5   48   0.694   1.183   2.146  0.3144 -0.1593  0.1880
    2A       C6   49   0.580   1.259   2.115  0.3186  0.3023  0.0593
    2A       N6   50   0.455   1.234   2.142  0.3182 -0.2790 -0.1490
    2A      H61   51   0.394   1.313   2.131  2.3968  1.5466  0.6624
    2A      H62   52   0.433   1.142   2.178  0.8235 -0.5948 -0.6186
    2A       N1   53   0.601   1.386   2.064  0.7279  1.0123 -0.0807
    2A       C2   54   0.727   1.433   2.044  0.4597  0.2548 -0.2710
    2A       H2   55   0.732   1.533   2.004  0.4414  0.3856  0.0468
    2A       N3   56   0.835   1.356   2.056  0.7154 -0.4299 -0.1851
    2A       C4   57   0.815   1.240   2.114  0.4629  0.6086 -0.1142
    2A      C3'   58   1.153   1.107   2.356 -0.0304 -0.0268 -0.3697
    2A      H3'   59   1.074   1.061   2.416  0.7435  0.1784  0.8556
    2A      C2'   60   1.101   1.224   2.275 -0.7225  0.7341 -0.4373
    2A      H2'   61   1.016   1.275   2.321 -0.6009  0.4840  0.0782
    2A      O2'   62   1.202   1.323   2.240  0.1372  0.0444  0.0512
    2A     HO2'   63   1.274   1.320   2.304 -0.8175  0.7520  1.1996
    2A      O3'   64   1.265   1.143   2.436  0.2163  0.6168  0.5568
    3A        P   65   1.250   1.145   2.591  0.0835 -0.2298  0.2428
    3A      OP1   66   1.374   1.215   2.637  0.0782 -0.1911 -0.0476
    3A      OP2   67   1.222   1.008   2.623 -0.1888  0.0312  0.6153
    3A      O5'   68   1.125   1.245   2.619  0.1935  0.7021  0.7063
    3A      C5'   69   1.136   1.382   2.603  0.4123  0.1061  0.4234
    3A      H5'   70   1.154   1.389   2.495  1.1815 -0.7237  0.4854
    3A     H5''   71   1.214   1.426   2.664  0.1853 -0.3121  1.0250
    3A      C4'   72   1.004   1.459   2.627 -0.3313 -0.1811 -0.3030
    3A      H4'   73   1.043   1.560   2.617  2.3340 -1.0970 -0.0038
    3A      O4'   74   0.905   1.433   2.528 -0.2894  0.2337  0.0151
    3A      C1'   75   0.780   1.431   2.587  0.8358  0.1144 -0.2500
    3A      H1'   76   0.710   1.497   2.537  0.3483 -1.7472 -2.1913
    3A       N9   77   0.731   1.292   2.580 -0.2862  0.2073  0.0913
    3A       C8   78   0.793   1.176   2.609  0.7920 -0.1081 -0.1833
    3A       H8   79   0.897   1.170   2.637  0.7984  0.8623  0.0243
    3A       N7   80   0.722   1.068   2.592 -0.0752 -0.3849  0.8224
    3A       C5   81   0.604   1.118   2.542  0.4786  0.0554  0.4081
    3A       C6   82   0.486   1.058   2.487  0.4293  0.4074  0.5040
    3A       N6   83   0.467   0.930   2.462  0.5282 -0.1410  0.3648
    3A      H61   84   0.385   0.895   2.414  1.0528 -0.5202 -0.2659
    3A      H62   85   0.522   0.864   2.516  1.9184 -0.8102 -1.7484
    3A       N1   86   0.385   1.129   2.448 -0.0549 -0.0782  0.0274
    3A       C2   87   0.396   1.258   2.463 -0.8564 -0.8311 -0.3630
    3A       H2   88   0.314   1.324   2.438 -0.0487  0.7048  0.8211
    3A       N3   89   0.500   1.329   2.504  0.7311  0.0054  0.0812
    3A       C4   90   0.599   1.253   2.542 -1.3424  0.1516 -0.2919
    3A      C3'   91   0.942   1.441   2.762 -0.2328 -0.2991 -0.3797
    3A      H3'   92   0.944   1.338   2.799  1.2858  0.4350  1.7784
    3A      C2'   93   0.802   1.485   2.730  0.5737 -0.0486  0.2987
    3A      H2'   94   0.737   1.430   2.799 -0.5014 -0.1256 -0.7539
    3A      O2'   95   0.790   1.624   2.752 -0.8305  0.0948  0.2607
    3A     HO2'   96   0.849   1.662   2.818 -0.5394 -0.3512  0.2580
    3A      O3'   97   1.013   1.517   2.860 -0.1926 -0.5544  0.0982
    4A3       P   98   1.005   1.478   3.012 -0.1082  0.0519  0.1627
    4A3     OP1   99   1.071   1.586   3.088 -0.4798 -0.1717 -0.0556
    4A3     OP2  100   1.047   1.340   3.024  0.0244  0.1453  0.1769
    4A3     O5'  101   0.852   1.478   3.056 -0.0221  0.5467  0.6147
    4A3     C5'  102   0.779   1.595   3.083 -0.4008  0.5368 -0.4248
    4A3     H5'  103   0.793   1.663   3.000 -2.3424  0.0386 -1.2202
    4A3    H5''  104   0.823   1.641   3.171 -1.8837  1.4356 -0.1103
    4A3     C4'  105   0.629   1.571   3.098  0.4876 -0.4567  0.1554
    4A3     H4'  106   0.576   1.665   3.115 -0.2713 -0.5418 -1.5273
    4A3     O4'  107   0.571   1.506   2.981 -0.0101  0.0983  0.0622
    4A3     C1'  108   0.491   1.395   3.025  0.0592 -0.2624  0.7464
    4A3     H1'  109   0.393   1.394   2.978 -0.3408  0.2383  1.5297
    4A3      N9  110   0.568   1.272   2.995  0.1108 -0.0906 -0.9599
    4A3      C8  111   0.685   1.229   3.047 -0.3452  0.7858  0.2002
    4A3      H8  112   0.753   1.290   3.106  2.2371  0.1977 -1.9293
    4A3      N7  113   0.723   1.106   3.012  0.1982  0.4644  0.3228
    4A3      C5  114   0.612   1.063   2.934 -0.0152  0.6575  0.0039
    4A3      C6  115   0.581   0.949   2.864 -0.1046  0.1381  0.3612
    4A3      N6  116   0.656   0.845   2.852  0.4324 -0.2793 -0.3413
    4A3     H61  117   0.627   0.804   2.765 -2.6117  2.3592 -0.7863
    4A3     H62  118   0.752   0.849   2.884  0.5246  1.0120 -0.7083
    4A3      N1  119   0.470   0.942   2.795  0.6146  0.6116  0.5671
    4A3      C2  120   0.390   1.047   2.793 -0.3410  0.0635 -0.7533
    4A3      H2  121   0.307   1.042   2.724 -1.2644 -2.0805  0.3918
    4A3      N3  122   0.406   1.161   2.855  0.2761  0.1842  0.7184
    4A3      C4  123   0.527   1.167   2.916 -0.2522 -0.0768 -0.2308
    4A3     C3'  124   0.589   1.484   3.218  0.1230 -0.3834 -0.4713
    4A3     H3'  125   0.660   1.403   3.237 -1.1671 -1.5484 -0.3730
    4A3     C2'  126   0.464   1.412   3.175  0.6882  0.1901  0.5538
    4A3     H2'  127   0.445   1.317   3.224 -0.9231 -1.0516 -2.2338
    4A3     O2'  128   0.354   1.502   3.195 -0.6342 -0.0847 -0.0501
    4A3    HO2'  129   0.363   1.570   3.128  0.1086 -1.6199 -1.6020
    4A3     O3'  130   0.564   1.557   3.343  0.4926  0.4295 -0.3121
    4A3    HO3'  131   0.511   1.503   3.403  1.7078  0.0439  0.4623
    5Na+    Na+  132   0.330   1.743   3.762 -0.0504 -0.2597  0.4312
    6Na+    Na+  133   1.795   0.057   3.170  0.0892  0.0406 -0.3190
    7Na+    Na+  134   2.339   3.992   0.348  0.1706  0.4674 -0.2408
    8Na+    Na+  135   0.759   1.949   0.703  0.2318 -0.0706  0.0613
    9Na+    Na+  136   2.644   0.156   3.081 -0.0974 -0.2664  0.5674
   10Na+    Na+  137   1.083   0.878   2.741 -0.3124  0.6044  0.4480
   11Na+    Na+  138   3.690   2.454   2.254 -0.2593  0.1725  0.5437
   12Na+    Na+  139   1.436   1.995   0.678 -0.5963  0.4260 -0.1322
   13Cl-    Cl-  140   2.582   2.125   0.550 -0.1378 -0.2092 -0.0136
   14Cl-    Cl-  141   3.397   4.144   3.313  0.1407 -0.4987  0.4886
   15Cl-    Cl-  142   0.035   4.107   0.966 -0.1319  0.2267  0.0344
   16Cl-    Cl-  143   0.811   3.268   1.248 -0.1902  0.5483  0.1726
   17Cl-    Cl-  144   2.129   3.962   0.550  0.3560 -0.2507  0.2834
   18WAT      O  145   1.073   4.019   1.512  0.1661 -0.1166 -0.3121
   18WAT     H1  146   1.005   4.085   1.528  0.3510 -0.0964  0.4424
   18WAT     H2  147   1.154   4.062   1.540  0.3244 -0.5746 -0.0690
   18WAT    EPW  148   1.074   4.034   1.518  0.2113 -0.1743 -0.1806
   19WAT      O  149   1.525   4.229   1.168  0.2121 -0.0454  0.0748
   19WAT     H1  150   1.530   4.150   1.115  0.0789 -0.5654  0.8330
   19WAT     H2  151   1.612   4.268   1.160 -0.1490  0.5242 -1.4839
   19WAT    EPW  152   1.537   4.224   1.160  0.1469 -0.0388 -0.0308
   20WAT      O  153   0.937   2.504   0.115  0.4803  0.0523 -0.3460
   20WAT     H1  154   0.889   2.584   0.096 -1.1482 -1.0104 -0.8969
   20WAT     H2  155   0.902   2.473   0.198  1.4113  0.1022  0.0878
   20WAT    EPW  156   0.926   2.510   0.124  0.3883 -0.0813 -0.3614
   21WAT      O  157   0.071   4.086   3.631  0.2933  0.1503  0.2801
   21WAT     H1  158   0.045   4.055   3.545 -3.9731 -1.5471  1.9015
   21WAT     H2  159   0.158   4.048   3.645  0.2343 -1.2262 -2.4218
   21WAT    EPW  160   0.079   4.077   3.622 -0.2772 -0.2551  0.1376
   22WAT      O  161   1.174   2.761   3.696  0.0486 -0.0250 -0.2190
   22WAT     H1  162   1.238   2.793   3.760  0.5985 -0.1074 -0.7152
   22WAT     H2  163   1.196   2.808   3.615 -1.9402  1.6648  0.1268
   22WAT    EPW  164   1.185   2.772   3.694 -0.1412  0.1870 -0.2388
   23WAT      O  165   0.393   3.436   3.841 -0.2613  0.0554  0.0723
   23WAT     H1  166   0.400   3.354   3.890 -1.1038 -0.4412 -0.6154
   23WAT     H2  167   0.314   3.426   3.789 -0.4811  1.4001  0.1253
   23WAT    EPW  168   0.384   3.424   3.841 -0.4014  0.1672 -0.0114
   24WAT      O  169   1.921   3.889   2.725  0.3541 -0.2818 -0.1637
   24WAT     H1  170   1.904   3.833   2.649  1.1123 -0.1010 -0.4847
   24WAT     H2  171   2.004   3.933   2.703 -0.2121  0.9423  0.0817
   24WAT    EPW  172   1.930   3.888   2.712  0.3794 -0.0965 -0.1736
   25WAT      O  173   1.643   2.088   1.883  0.1549  0.1658  0.3384
   25WAT     H1  174   1.578   2.159   1.882 -1.2109 -0.9897 -1.9631
   25WAT     H2  175   1.715   2.122   1.936 -1.9515  1.8389  2.3332
   25WAT    EPW  176   1.644   2.102   1.890 -0.3030  0.2340  0.2979
   26WAT      O  177   2.329   0.572   0.021  0.4769 -0.3105 -0.0959
   26WAT     H1  178   2.236   0.567  -0.001  0.6651  1.0242 -1.3609
   26WAT     H2  179   2.343   0.664   0.045  1.6189 -0.3211 -0.6694
   26WAT    EPW  180   2.319   0.584   0.022  0.6523 -0.1358 -0.3384
   27WAT      O  181   2.141   1.047   1.755  0.3814 -0.7878 -0.3887
   27WAT     H1  182   2.133   0.968   1.807 -0.4174 -1.5712 -1.6604
   27WAT     H2  183   2.056   1.059   1.714  0.8727 -0.0072 -1.2421
   27WAT    EPW  184   2.129   1.038   1.757  0.3408 -0.7882 -0.6690
   28WAT      O  185   2.409   0.982   1.953  0.2945 -0.0030  0.1682
   28WAT     H1  186   2.460   1.047   2.002 -0.5172  1.7428 -1.1957
   28WAT     H2  187   2.446   0.897   1.980  0.5898  0.8988  2.9293
   28WAT    EPW  188   2.421   0.979   1.963  0.2264  0.3462  0.3525
   29WAT      O  189   2.413   1.113   3.186 -0.2640 -0.2391 -0.1801
   29WAT     H1  190   2.368   1.166   3.251 -0.1935 -0.3587 -0.0343
   29WAT     H2  191   2.490   1.164   3.163  0.7758 -1.0851  1.2912
   29WAT    EPW  192   2.417   1.127   3.191 -0.1175 -0.3664  0.0332
   30WAT      O  193   3.410   0.672   2.712  0.4995 -0.5156  0.0301
   30WAT     H1  194   3.435   0.697   2.623 -0.2916  0.1789 -0.0141
   30WAT     H2  195   3.338   0.610   2.700 -0.4052  0.4756  0.1807
   30WAT    EPW  196   3.404   0.667   2.699  0.2758 -0.2933  0.0441
   31WAT      O  197   3.023   3.333   0.018 -0.8464  0.5009  0.6164
   31WAT     H1  198   3.016   3.368  -0.071  1.5331 -1.0174 -0.2794
   31WAT     H2  199   2.974   3.251   0.015 -1.4050  0.8133  0.9629
   31WAT    EPW  200   3.015   3.327   0.006 -0.6062  0.3418  0.5440
   32WAT      O  201   0.783   3.950   1.570 -0.4264  0.1381  0.3546
   32WAT     H1  202   0.713   3.885   1.578  1.4244 -1.8805  1.1978
   32WAT     H2  203   0.797   3.959   1.476 -0.1211 -1.4151  0.2261
   32WAT    EPW  204   0.775   3.943   1.559 -0.1420 -0.3330  0.4489
   33WAT      O  205   3.449   3.950   2.149  0.3785  0.4284  0.6490
   33WAT     H1  206   3.510   3.877   2.152  1.0392  0.9032 -0.6223
   33WAT     H2  207   3.487   4.016   2.207 -1.0956 -0.7958  3.2369
   33WAT    EPW  208   3.462   3.949   2.157  0.2712  0.3296  0.8226
   34WAT      O  209   1.635   0.390   0.702  0.2635 -0.3939  0.1822
   34WAT     H1  210   1.648   0.325   0.633  1.3952 -0.4050  0.3865
   34WAT     H2  211   1.698   0.459   0.682 -0.1401  0.1010  0.6071
   34WAT    EPW  212   1.645   0.390   0.690  0.3595 -0.3301  0.2652
   35WAT      O  213   1.262   3.215   1.530 -0.7259 -0.0976 -0.1771
   35WAT     H1  214   1.203   3.174   1.467 -0.5696  0.4190 -0.6694
   35WAT     H2  215   1.326   3.261   1.476 -0.3561  0.0228  0.3582
   35WAT    EPW  216   1.263   3.215   1.515 -0.6565 -0.0135 -0.1715
   36WAT      O  217   3.653   3.479   3.353 -0.0329  0.5497 -0.0289
   36WAT     H1  218   3.710   3.414   3.392 -0.3091  0.7102  0.6641
   36WAT     H2  219   3.633   3.445   3.265 -1.1448 -0.9038  0.7470
   36WAT    EPW  220   3.658   3.466   3.346 -0.2160  0.3792  0.1648
   37WAT      O  221   1.170   2.935   3.425  0.1894  0.1967 -0.2670
   37WAT     H1  222   1.135   2.983   3.500  0.7019  0.8817 -0.4644
   37WAT     H2  223   1.169   2.999   3.353  0.3646 -0.2479 -0.6686
   37WAT    EPW  224   1.165   2.950   3.425  0.2801  0.2284 -0.3460
   38WAT      O  225   1.184   3.921   2.799  0.4023  0.2771 -0.1813
   38WAT     H1  226   1.160   3.837   2.759 -0.7790  0.3226  0.3905
   38WAT     H2  227   1.256   3.899   2.859 -0.5622 -0.5193  0.7097
   38WAT    EPW  228   1.191   3.907   2.802  0.1193  0.1781  0.0116
   39WAT      O  229   2.683   3.572   3.380 -0.5624 -0.2340 -0.2668
   39WAT     H1  230   2.716   3.521   3.453 -0.4233 -0.0238 -0.1815
   39WAT     H2  231   2.603   3.528   3.354 -0.5469 -0.3805 -0.0670
   39WAT    EPW  232   2.677   3.560   3.386 -0.5420 -0.2256 -0.2292
   40WAT      O  233   2.783   0.647   0.779  0.0927 -0.2084 -0.0943
   40WAT     H1  234   2.723   0.631   0.852  0.4725  0.1313  0.2958
   40WAT     H2  235   2.867   0.609   0.807  0.2647 -0.0041 -0.3195
   40WAT    EPW  236   2.786   0.640   0.792  0.1654 -0.1367 -0.0726
   41WAT      O  237   2.549   0.908   0.918 -0.3303 -0.7987  0.1706
   41WAT     H1  238   2.518   0.834   0.865 -0.6781 -1.3953  1.1582
   41WAT     H2  239   2.554   0.981   0.858 -0.5574 -1.4937 -0.7123
   41WAT    EPW  240   2.545   0.908   0.903 -0.4061 -0.9691  0.1844
   42WAT      O  241   3.141   1.083   1.504 -0.5528  0.0140  0.5550
   42WAT     H1  242   3.207   1.143   1.538  0.2386 -1.1852  1.2072
   42WAT     H2  243   3.062   1.104   1.554 -1.1415  2.4317 -1.2158
   42WAT    EPW  244   3.139   1.094   1.515 -0.5261  0.1747  0.4075
   43WAT      O  245   0.754   2.920   1.336 -0.0352 -0.3996 -0.6940
   43WAT     H1  246   0.780   3.005   1.301 -0.4524  0.5981  1.2766
   43WAT     H2  247   0.670   2.902   1.295 -1.3986  1.6038  0.9955
   43WAT    EPW  248   0.747   2.929   1.326 -0.2700 -0.0038 -0.2112
   44WAT      O  249   2.987   4.380   1.539 -0.2848  0.0519 -0.7087
   44WAT     H1  250   3.064   4.437   1.530 -0.0526  0.0737  1.0575
   44WAT     H2  251   3.023   4.292   1.543 -0.0847  0.1920  2.3235
   44WAT    EPW  252   3.002   4.376   1.538 -0.2278  0.0733 -0.0758
   45WAT      O  253   1.169   3.037   2.972  0.2022 -0.2836  0.3794
   45WAT     H1  254   1.211   3.064   2.891 -1.5141  0.7948 -0.2152
   45WAT     H2  255   1.118   2.959   2.948  0.0366 -0.2200  0.5203
   45WAT    EPW  256   1.168   3.030   2.958 -0.0460 -0.1329  0.3195
   46WAT      O  257   2.210   4.178   1.282 -0.1391 -0.0211  0.3375
   46WAT     H1  258   2.115   4.170   1.270 -0.0888 -1.1875  0.5753
   46WAT     H2  259   2.220   4.224   1.365 -0.5713 -2.8880  2.1399
   46WAT    EPW  260   2.199   4.183   1.291 -0.1895 -0.5530  0.6066
   47WAT      O  261   3.511   3.653   0.221 -0.1824 -0.4781  0.1850
   47WAT     H1  262   3.439   3.591   0.208  0.5151 -1.3127  0.1877
   47WAT     H2  263   3.509   3.709   0.143 -0.5578 -0.7838 -0.0288
   47WAT    EPW  264   3.502   3.652   0.209 -0.1399 -0.6285  0.1572
   48WAT      O  265   0.700   1.856   1.066 -0.5518 -0.5161 -0.2611
   48WAT     H1  266   0.702   1.932   1.007  0.0751 -0.2822  0.0519
   48WAT     H2  267   0.709   1.894   1.153 -2.6375 -0.7577  0.1060
   48WAT    EPW  268   0.702   1.871   1.069 -0.7442 -0.5171 -0.1714
   49WAT      O  269   1.573   4.309   0.202 -0.5013  0.3051 -0.0471
   49WAT     H1  270   1.545   4.332   0.290 -0.2766  1.0164 -0.1541
   49WAT     H2  271   1.665   4.284   0.212 -0.2342  1.1829 -0.1922
   49WAT    EPW  272   1.582   4.309   0.215 -0.4365  0.5147 -0.0804
   50WAT      O  273   0.917   2.870   1.764 -0.3115 -0.0911  0.0084
   50WAT     H1  274   0.995   2.908   1.805 -1.0349  0.1203  1.2150
   50WAT     H2  275   0.865   2.945   1.736 -1.8985 -0.0799  2.6855
   50WAT    EPW  276   0.921   2.885   1.766 -0.6162 -0.0617  0.5207
   51WAT      O  277   3.368   2.145   1.405 -0.2061 -0.0207 -0.1651
   51WAT     H1  278   3.387   2.229   1.364  0.2241 -0.3954 -0.7363
   51WAT     H2  279   3.301   2.106   1.350 -0.2394 -0.1576 -0.0294
   51WAT    EPW  280   3.362   2.151   1.393 -0.1537 -0.0882 -0.2225
   52WAT      O  281   3.565   2.637   1.901  0.1144  0.1348 -0.3434
   52WAT     H1  282   3.618   2.682   1.835  1.4000 -2.1076 -0.9527
   52WAT     H2  283   3.525   2.563   1.854 -0.8354 -0.1721  0.8820
   52WAT    EPW  284   3.567   2.633   1.886  0.1587 -0.2015 -0.2622
   53WAT      O  285   3.611   0.117   2.937 -0.6233  0.2716 -0.1686
   53WAT     H1  286   3.615   0.209   2.913 -2.0240  0.8827  1.7119
   53WAT     H2  287   3.590   0.117   3.030  0.7571 -1.9571  0.2220
   53WAT    EPW  288   3.609   0.129   2.946 -0.6260  0.0583  0.1310
   54WAT      O  289   3.556   4.084   0.582  0.1557  0.1122  0.1846
   54WAT     H1  290   3.551   4.005   0.527  0.7273 -0.4533  0.9369
   54WAT     H2  291   3.532   4.054   0.669  1.0453  0.6398  0.6148
   54WAT    EPW  292   3.552   4.069   0.586  0.3484  0.1072  0.3405
   55WAT      O  293   0.010   2.325   0.032  0.5174 -0.4606 -0.2902
   55WAT     H1  294   0.007   2.255   0.097  1.2682 -0.2240  0.0088
   55WAT     H2  295   0.097   2.318  -0.007  0.5786  0.2698 -0.2962
   55WAT    EPW  296   0.021   2.315   0.036  0.6245 -0.3330 -0.2515
   56WAT      O  297   3.681   3.979   3.006  0.2167 -0.1020 -0.0618
   56WAT     H1  298   3.604   4.016   3.049  0.4066  0.7073 -0.3939
   56WAT     H2  299   3.692   4.033   2.927  1.5342  0.2449  0.3382
   56WAT    EPW  300   3.672   3.991   3.001  0.4155  0.0505 -0.0528
   57WAT      O  301   1.714   4.296   3.355 -0.1178  0.7049  0.4680
   57WAT     H1  302   1.636   4.242   3.343  0.3401 -0.5763  2.6014
   57WAT     H2  303   1.787   4.236   3.341  0.4657  1.3825  0.5262
   57WAT    EPW  304   1.713   4.281   3.352  0.0195  0.6253  0.7571
   58WAT      O  305   1.132   3.154   3.252  0.4901  0.0038  0.2992
   58WAT     H1  306   1.160   3.135   3.162  0.1235  1.4789 -0.1494
   58WAT     H2  307   1.159   3.244   3.266 -0.3776  0.1123  1.3214
   58WAT    EPW  308   1.139   3.163   3.242  0.3273  0.2127  0.3749
   59WAT      O  309   1.534   3.066   2.988 -0.1782 -0.3107 -0.6669
   59WAT     H1  310   1.582   3.074   2.906 -1.5083 -1.5710 -1.6113
   59WAT     H2  311   1.502   2.976   2.989  0.0364 -0.4164  1.3828
   59WAT    EPW  312   1.536   3.055   2.978 -0.3253 -0.4908 -0.5211
   60WAT      O  313   1.966   2.762   1.002 -0.8143  0.1806  0.5236
   60WAT     H1  314   2.051   2.778   0.962 -0.4369 -0.4285  1.0502
   60WAT     H2  315   1.921   2.846   0.998  1.2726  1.6500  3.6984
   60WAT    EPW  316   1.971   2.775   0.996 -0.4892  0.2941  1.0117
   61WAT      O  317   2.487   1.951   0.793  0.5875 -0.0381  0.0952
   61WAT     H1  318   2.513   1.983   0.707  3.0938 -1.3649  0.2566
   61WAT     H2  319   2.516   2.019   0.854 -1.5336  1.0848 -0.0413
   61WAT    EPW  320   2.494   1.964   0.790  0.6383 -0.0650  0.0985
   62WAT      O  321   0.946   0.027   3.311  0.3386  0.0070  0.0044
   62WAT     H1  322   0.890  -0.037   3.355 -0.1403  1.6759  1.9436
   62WAT     H2  323   0.920   0.021   3.219  1.8291 -4.0606 -0.3608
   62WAT    EPW  324   0.935   0.018   3.305  0.4720 -0.3094  0.2120
   63WAT      O  325   0.922   3.971   0.291  0.3440 -0.0693 -0.7484
   63WAT     H1  326   0.880   3.885   0.300  0.8742 -0.2355  0.2294
   63WAT     H2  327   1.013   3.951   0.271  0.3892  0.2701 -0.8766
   63WAT    EPW  328   0.928   3.957   0.290  0.4199 -0.0465 -0.6364
   64WAT      O  329   1.669   1.888   2.559  0.2061  0.0428 -0.0934
   64WAT     H1  330   1.678   1.921   2.469 -0.2089  0.3845 -0.0105
   64WAT     H2  331   1.584   1.845   2.560  0.0589  0.3336  0.2246
   64WAT    EPW  332   1.659   1.887   2.547  0.1320  0.1262 -0.0405
   65WAT      O  333   1.477   2.249   0.361 -0.0714  0.0005 -0.1382
   65WAT     H1  334   1.421   2.323   0.335  0.6152  0.2457 -0.9519
   65WAT     H2  335   1.515   2.218   0.279  0.5467 -0.5272  0.3396
   65WAT    EPW  336   1.474   2.255   0.347  0.1007 -0.0368 -0.1825
   66WAT      O  337   0.839   4.176   0.577  0.1066 -0.0616 -0.5491
   66WAT     H1  338   0.785   4.097   0.584 -2.4348  1.6773  1.5161
   66WAT     H2  339   0.894   4.174   0.656 -0.6967  0.6735  0.0486
   66WAT    EPW  340   0.839   4.165   0.589 -0.3346  0.2647 -0.1979
   67WAT      O  341   1.846   0.431   1.877  0.3388 -0.4139  0.4927
   67WAT     H1  342   1.809   0.457   1.793  0.5373  1.2270  0.8844
   67WAT     H2  343   1.789   0.472   1.942  0.6400 -1.0263  1.1594
   67WAT    EPW  344   1.833   0.440   1.875  0.4047 -0.2782  0.6323
   68WAT      O  345   2.867   4.294   0.835  0.4762 -0.7523  0.4293
   68WAT     H1  346   2.909   4.367   0.882 -0.0213 -1.2286  1.6480
   68WAT     H2  347   2.861   4.325   0.744  0.7878  0.5018  0.8107
   68WAT    EPW  348   2.872   4.308   0.829  0.4517 -0.6497  0.6403
   69WAT      O  349   2.331   1.574   0.289 -0.1130  0.1508 -0.1426
   69WAT     H1  350   2.284   1.655   0.268  1.9359  1.4109 -0.1077
   69WAT     H2  351   2.273   1.505   0.258 -1.1029  1.6715 -1.9476
   69WAT    EPW  352   2.317   1.576   0.282  0.0266  0.5176 -0.3761
   70WAT      O  353   3.499   3.449   1.992 -0.0531  0.0611 -0.3733
   70WAT     H1  354   3.474   3.469   2.082 -0.7831 -0.7628 -0.3766
   70WAT     H2  355   3.582   3.402   2.000 -1.0255 -1.6737  0.0396
   70WAT    EPW  356   3.506   3.445   2.005 -0.2777 -0.2763 -0.3193
   71WAT      O  357   3.508   1.209   1.409  0.3060 -0.2863 -0.5176
   71WAT     H1  358   3.595   1.246   1.425 -0.2362  0.7086  0.2750
   71WAT     H2  359   3.518   1.116   1.427  0.7681  0.1228  1.6106
   71WAT    EPW  360   3.521   1.202   1.414  0.2954 -0.1011 -0.1324
   72WAT      O  361   1.803   1.989   3.016 -0.1033 -0.3787  0.0179
   72WAT     H1  362   1.844   2.000   2.930 -0.1107 -0.4782  0.0011
   72WAT     H2  363   1.863   1.933   3.064  1.2854  1.8509  1.0396
   72WAT    EPW  364   1.816   1.983   3.011  0.0789 -0.0978  0.1504
   73WAT      O  365   3.230   0.917   2.540  0.2595 -0.3293 -0.0120
   73WAT     H1  366   3.200   0.884   2.456 -0.2838  0.6492 -0.2280
   73WAT     H2  367   3.173   0.875   2.605  0.5154 -0.8924 -0.1486
   73WAT    EPW  368   3.219   0.907   2.538  0.2216 -0.2745 -0.0585
   74WAT      O  369   1.315   2.226   2.584 -0.5102 -0.4039 -0.0915
   74WAT     H1  370   1.321   2.239   2.489  1.8273 -0.3761  0.0223
   74WAT     H2  371   1.400   2.254   2.618 -0.3274 -2.8599  1.7362
   74WAT    EPW  372   1.327   2.232   2.576 -0.1778 -0.7242  0.1645
   75WAT      O  373   1.519   1.705   3.555 -0.4859 -0.5656  0.0678
   75WAT     H1  374   1.455   1.753   3.608 -0.6646 -1.1321  0.3641
   75WAT     H2  375   1.495   1.725   3.465  0.5075  1.3372  0.1718
   75WAT    EPW  376   1.508   1.714   3.550 -0.3785 -0.3893  0.1206
   76WAT      O  377   2.141   1.246   1.061 -0.4957  0.4443 -0.3136
   76WAT     H1  378   2.149   1.191   1.138 -0.1948 -0.8860 -1.2501
   76WAT     H2  379   2.199   1.205   0.997 -0.0865  2.0045 -0.9743
   76WAT    EPW  380   2.149   1.233   1.062 -0.4021  0.4747 -0.5243
   77WAT      O  381   1.979   0.161   0.384  0.3820 -0.5910 -0.0219
   77WAT     H1  382   1.897   0.126   0.350 -0.1515  0.6648 -0.0978
   77WAT     H2  383   2.038   0.086   0.388 -1.1188 -1.7702  1.1749
   77WAT    EPW  384   1.976   0.147   0.380  0.1137 -0.5809  0.1260
   78WAT      O  385   3.555   3.000   0.734 -0.3712  0.1594 -0.0177
   78WAT     H1  386   3.512   3.027   0.653  2.2465  0.0388 -1.5693
   78WAT     H2  387   3.558   3.080   0.787 -2.4400  0.1502  0.1846
   78WAT    EPW  388   3.550   3.014   0.730 -0.2988  0.1423 -0.1957
   79WAT      O  389   0.684   0.680   3.711  0.4383 -0.8820 -0.6437
   79WAT     H1  390   0.683   0.584   3.714 -0.0690 -0.8746 -0.4185
   79WAT     H2  391   0.596   0.704   3.681  0.6100 -0.4900 -0.8422
   79WAT    EPW  392   0.672   0.670   3.707  0.3941 -0.8293 -0.6402
   80WAT      O  393   0.581   2.228   3.263  0.5626 -0.2691  0.5864
   80WAT     H1  394   0.610   2.235   3.354  1.8994 -1.8242  0.3327
   80WAT     H2  395   0.658   2.251   3.211 -0.1883  0.6149 -0.1745
   80WAT    EPW  396   0.595   2.232   3.268  0.6399 -0.3576  0.4526
   81WAT      O  397   0.048   0.756   3.644 -0.6704 -0.0734 -0.3596
   81WAT     H1  398   0.007   0.726   3.725  0.6002  0.4933  0.5139
   81WAT     H2  399   0.029   0.850   3.641 -0.5224 -0.0522 -0.6091
   81WAT    EPW  400   0.040   0.765   3.654 -0.4833  0.0041 -0.2773
   82WAT      O  401   2.294   1.584   1.795 -0.0683 -0.4419 -0.4157
   82WAT     H1  402   2.216   1.640   1.791 -0.0855 -0.5097 -2.1324
   82WAT     H2  403   2.259   1.495   1.803 -0.1002 -0.3542  0.4851
   82WAT    EPW  404   2.279   1.580   1.795 -0.0747 -0.4393 -0.5233
   83WAT      O  405   2.362   4.279   2.322  0.4901 -0.4672 -0.4120
   83WAT     H1  406   2.302   4.207   2.303  0.5180 -0.4301 -0.6482
   83WAT     H2  407   2.307   4.357   2.322  0.2116 -0.6226  1.2103
   83WAT    EPW  408   2.347   4.280   2.320  0.4570 -0.4828 -0.2292
   84WAT      O  409   1.215   0.424   3.286 -0.3009 -0.2304 -0.3277
   84WAT     H1  410   1.122   0.427   3.306 -0.5696 -0.9010 -1.4078
   84WAT     H2  411   1.232   0.504   3.236 -0.3945 -0.3186 -0.5024
   84WAT    EPW  412   1.205   0.435   3.282 -0.3487 -0.3305 -0.4932
   85WAT      O  413   3.505   2.071   0.172  0.2463 -0.0082 -0.2562
   85WAT     H1  414   3.464   2.067   0.085  1.1362  0.3074 -0.6977
   85WAT     H2  415   3.432   2.060   0.232 -0.1754 -2.0409 -1.0525
   85WAT    EPW  416   3.490   2.069   0.168  0.3081 -0.2347 -0.4194
   86WAT      O  417   2.156   2.028   1.360  0.2045  0.2261  0.1056
   86WAT     H1  418   2.139   2.122   1.355 -1.2647  0.1089  1.8002
   86WAT     H2  419   2.208   2.016   1.439 -0.1126 -0.4428  0.2268
   86WAT    EPW  420   2.160   2.038   1.370 -0.0311  0.1224  0.3451
   87WAT      O  421   0.402   1.196   0.807  0.1737 -0.3614  0.0721
   87WAT     H1  422   0.415   1.111   0.849  2.2832 -0.1471 -0.0243
   87WAT     H2  423   0.467   1.198   0.736  1.3238  1.9528  1.0897
   87WAT    EPW  424   0.412   1.185   0.803  0.6036 -0.0279  0.1936
   88WAT      O  425   2.525   3.229   3.679  0.1562  0.1002 -0.0797
   88WAT     H1  426   2.570   3.314   3.679 -1.6091  1.0963  0.3207
   88WAT     H2  427   2.433   3.251   3.662 -0.2862 -1.7836 -0.3310
   88WAT    EPW  428   2.519   3.243   3.676 -0.1350 -0.0169 -0.0600
   89WAT      O  429   0.809   1.864   0.491  0.4301 -0.7205  0.4827
   89WAT     H1  430   0.819   1.780   0.447 -0.8202 -0.6182 -0.0277
   89WAT     H2  431   0.756   1.916   0.431  0.5951  0.1914  1.1157
   89WAT    EPW  432   0.803   1.860   0.477  0.2870 -0.5867  0.4989
   90WAT      O  433   0.969   3.540   0.550  0.3080 -0.3945 -0.7248
   90WAT     H1  434   0.926   3.605   0.494 -0.6565 -0.9635 -0.6697
   90WAT     H2  435   0.968   3.578   0.637 -1.0597 -0.8371 -0.5289
   90WAT    EPW  436   0.963   3.553   0.554  0.0004 -0.5279 -0.6917
   91WAT      O  437   3.016   1.814   2.786  0.2988 -0.3042  0.2129
   91WAT     H1  438   2.969   1.840   2.866 -1.4798 -2.3348 -0.0694
   91WAT     H2  439   3.108   1.817   2.811 -0.2328 -2.5498  3.0117
   91WAT    EPW  440   3.022   1.818   2.800 -0.0059 -0.8682  0.5448
   92WAT      O  441   0.393   2.837   2.190  0.2358 -0.5934 -1.0571
   92WAT     H1  442   0.463   2.773   2.177 -0.6531 -1.5953 -1.0461
   92WAT     H2  443   0.429   2.897   2.255  1.1669 -0.9569 -1.2067
   92WAT    EPW  444   0.407   2.836   2.197  0.2414 -0.7735 -1.0754
   93WAT      O  445   1.678   0.217   1.638  0.2213  0.0240  0.2738
   93WAT     H1  446   1.658   0.128   1.667 -0.4529  0.3036  0.6802
   93WAT     H2  447   1.769   0.231   1.667 -0.4492  0.3298  2.4049
   93WAT    EPW  448   1.688   0.207   1.646  0.0440  0.1012  0.6085
   94WAT      O  449   3.285   0.228   1.848 -0.1908  0.1743  0.4177
   94WAT     H1  450   3.281   0.217   1.753 -1.1195  0.3327  0.4283
   94WAT     H2  451   3.371   0.193   1.873 -0.9447 -2.2700 -0.1585
   94WAT    EPW  452   3.296   0.222   1.839 -0.4127 -0.1272  0.3431
   95WAT      O  453   0.336   3.325   2.112  0.3681  0.1177 -0.0815
   95WAT     H1  454   0.381   3.348   2.030  1.6531  0.2978  0.6477
   95WAT     H2  455   0.307   3.235   2.098  2.7568 -0.7590  0.1301
   95WAT    EPW  456   0.338   3.316   2.099  0.8526  0.0258  0.0426
   96WAT      O  457   3.021   1.592   1.994  0.5946  0.0774  0.9342
   96WAT     H1  458   3.076   1.523   1.958 -1.0981 -0.7306 -0.2390
   96WAT     H2  459   3.078   1.669   2.000  1.4759 -0.2959 -1.6289
   96WAT    EPW  460   3.035   1.593   1.990  0.4876 -0.0784  0.4414
   97WAT      O  461   0.607   2.190   1.425  0.2807 -0.3438 -0.5123
   97WAT     H1  462   0.667   2.193   1.499  0.1009  0.1707 -0.3834
   97WAT     H2  463   0.520   2.188   1.465  0.1209  1.2924 -0.6895
   97WAT    EPW  464   0.603   2.190   1.440  0.2359 -0.0601 -0.5187
   98WAT      O  465   1.893   4.158   2.879 -0.1377 -0.3703 -0.6173
   98WAT     H1  466   1.816   4.104   2.894 -1.0624  0.7372 -1.1668
   98WAT     H2  467   1.961   4.097   2.853 -0.5710 -1.4700  0.7527
   98WAT    EPW  468   1.892   4.143   2.878 -0.3168 -0.3693 -0.5091
   99WAT      O  469   1.374   2.754   0.108 -0.2281 -0.3651 -0.0712
   99WAT     H1  470   1.420   2.670   0.103 -1.3857 -1.0152 -0.4554
   99WAT     H2  471   1.426   2.814   0.055 -0.4230 -1.3888 -1.4974
   99WAT    EPW  472   1.387   2.750   0.100 -0.4065 -0.5859 -0.3100
  100WAT      O  473   0.788   0.128   2.016  0.5310  0.3701  0.2392
  100WAT     H1  474   0.777   0.219   2.046  3.9145  0.6756  0.9030
  100WAT     H2  475   0.878   0.124   1.985  0.1214 -2.5295 -0.8414
  100WAT    EPW  476   0.798   0.140   2.016  0.9232  0.0280  0.1843
  101WAT      O  477   3.074   1.768   3.253 -0.3694  0.0833 -0.0128
  101WAT     H1  478   3.011   1.703   3.221 -0.5777 -0.0205  0.5898
  101WAT     H2  479   3.133   1.717   3.309 -0.6849  0.4561  0.6658
  101WAT    EPW  480   3.073   1.752   3.257 -0.4385  0.1188  0.1561
  102WAT      O  481   2.381   3.810   2.081  0.4726  0.1890 -0.0747
  102WAT     H1  482   2.379   3.864   2.003 -1.2690 -1.9363 -1.6110
  102WAT     H2  483   2.419   3.867   2.149  0.8654  2.4970 -2.1106
  102WAT    EPW  484   2.386   3.825   2.080  0.2947  0.2131 -0.5459
  103WAT      O  485   1.559   1.659   0.060  0.2606  0.0388 -0.2079
  103WAT     H1  486   1.585   1.643  -0.031  1.2980 -2.5447  0.4432
  103WAT     H2  487   1.476   1.613   0.070  0.8285 -0.8821  0.4642
  103WAT    EPW  488   1.551   1.651   0.049  0.4723 -0.4234 -0.0334
  104WAT      O  489   0.127   3.330   1.806 -0.8323  0.1708 -0.0631
  104WAT     H1  490   0.109   3.409   1.754  0.2321  0.7669  0.4295
  104WAT     H2  491   0.097   3.258   1.750 -1.2430  0.8853 -0.7975
  104WAT    EPW  492   0.121   3.331   1.792 -0.7461  0.3437 -0.0950
  105WAT      O  493   3.382   3.227   3.611 -0.1506 -0.1786 -0.3872
  105WAT     H1  494   3.408   3.319   3.617  1.0159 -0.3922 -1.5475
  105WAT     H2  495   3.409   3.201   3.523 -0.5201 -1.6153 -0.0965
  105WAT    EPW  496   3.389   3.236   3.600 -0.0455 -0.3963 -0.5019
  106WAT      O  497   1.352   1.850   2.394 -0.4358  0.3894  0.3167
  106WAT     H1  498   1.291   1.880   2.326 -0.4924 -0.2962  0.0578
  106WAT     H2  499   1.438   1.879   2.362  0.0229 -2.7582 -1.8166
  106WAT    EPW  500   1.355   1.858   2.381 -0.3828 -0.1162  0.0012
  107WAT      O  501   0.049   1.933   2.456 -0.0541  0.1349  0.3315
  107WAT     H1  502  -0.037   1.905   2.426  0.8448 -0.6584 -1.7361
  107WAT     H2  503   0.069   1.876   2.530 -0.8685 -0.3877  0.1601
  107WAT    EPW  504   0.040   1.922   2.462 -0.0430 -0.0387  0.0362
  108WAT      O  505   0.741   4.045   1.284  0.0324  0.0102  0.4453
  108WAT     H1  506   0.746   4.053   1.189  2.3482  1.8898  0.6220
  108WAT     H2  507   0.648   4.054   1.304 -0.4110  0.4356 -1.5792
  108WAT    EPW  508   0.730   4.047   1.274  0.2794  0.3142  0.2016
  109WAT      O  509   3.685   1.601   1.582 -0.3769 -0.1015 -0.1088
  109WAT     H1  510   3.685   1.566   1.671  0.5423  1.2047  0.4511
  109WAT     H2  511   3.634   1.682   1.589  0.5473  0.5381 -0.5109
  109WAT    EPW  512   3.678   1.607   1.595 -0.1338  0.1551 -0.0880
  110WAT      O  513   2.657   1.418   1.519 -0.4577 -0.3124  0.1160
  110WAT     H1  514   2.653   1.341   1.462 -0.4111 -1.3982  1.5127
  110WAT     H2  515   2.574   1.463   1.505 -0.2223 -0.2376 -1.1982
  110WAT    EPW  516   2.646   1.414   1.510 -0.4205 -0.4457  0.1269
  111WAT      O  517   0.809   1.387   0.691  0.3192 -0.3592  0.0871
  111WAT     H1  518   0.803   1.456   0.758 -0.2428  0.8250 -1.1334
  111WAT     H2  519   0.887   1.337   0.716 -1.1841 -1.4749  2.9770
  111WAT    EPW  520   0.819   1.390   0.703  0.0468 -0.3501  0.3073
  112WAT      O  521   2.244   1.923   3.228 -0.3073  0.5492  0.2268
  112WAT     H1  522   2.259   1.829   3.240 -0.0708  0.8166  2.5568
  112WAT     H2  523   2.223   1.933   3.136  0.6244 -1.6647 -0.2745
  112WAT    EPW  524   2.243   1.912   3.218 -0.1532  0.2924  0.4680
  113WAT      O  525   1.938   3.100   0.156  0.5812 -0.8226  0.1415
  113WAT     H1  526   1.888   3.152   0.219 -1.6167  0.1791 -2.2452
  113WAT     H2  527   1.903   3.011   0.165  0.3683 -0.7128  0.4246
  113WAT    EPW  528   1.927   3.095   0.166  0.2632 -0.6760 -0.1359
  114WAT      O  529   3.111   1.844   3.590 -0.2058  0.0852 -0.5319
  114WAT     H1  530   3.177   1.780   3.617 -0.8594 -0.1355  0.6172
  114WAT     H2  531   3.040   1.792   3.554 -0.4409  0.2123 -0.2531
  114WAT    EPW  532   3.110   1.829   3.589 -0.3230  0.0729 -0.3436
  115WAT      O  533   3.193   0.447   0.169 -0.0525  0.3737 -0.4824
  115WAT     H1  534   3.202   0.384   0.240 -1.3078  0.1239 -0.5242
  115WAT     H2  535   3.100   0.465   0.165  0.2411  1.9542 -0.7304
  115WAT    EPW  536   3.182   0.441   0.178 -0.1793  0.5492 -0.5206
  116WAT      O  537   2.439   3.234   1.897 -0.1315 -0.5323  0.7210
  116WAT     H1  538   2.505   3.167   1.878  2.0382  1.5225  0.4497
  116WAT     H2  539   2.488   3.316   1.896 -3.0529  1.3997 -1.4567
  116WAT    EPW  540   2.454   3.236   1.895 -0.2306 -0.0065  0.3980
  117WAT      O  541   1.714   2.777   1.176 -0.2594 -0.5232  0.0514
  117WAT     H1  542   1.801   2.756   1.208 -0.6254  0.3333  1.7406
  117WAT     H2  543   1.686   2.700   1.127  2.5607  0.2683 -3.1399
  117WAT    EPW  544   1.722   2.764   1.174  0.0643 -0.3058 -0.1467
  118WAT      O  545   1.853   4.073   0.929 -0.2170 -0.2152 -0.0206
  118WAT     H1  546   1.857   4.000   0.867 -1.2408 -0.6424  0.4061
  118WAT     H2  547   1.869   4.034   1.015  0.3677  0.2494  0.0962
  118WAT    EPW  548   1.856   4.059   0.932 -0.2749 -0.2103  0.0511
  119WAT      O  549   1.999   0.920   1.115 -0.6265 -0.1817 -0.4797
  119WAT     H1  550   2.090   0.889   1.118 -0.3073  0.6634 -1.1838
  119WAT     H2  551   1.955   0.869   1.183  0.8148  0.7635  1.2811
  119WAT    EPW  552   2.005   0.909   1.125 -0.3943  0.0544 -0.3403
  120WAT      O  553   1.620   3.250   0.211  0.1563 -0.4292  0.2056
  120WAT     H1  554   1.690   3.301   0.253 -0.1886  0.7676 -0.6079
  120WAT     H2  555   1.561   3.228   0.283 -0.6691  1.9796  0.3802
  120WAT    EPW  556   1.622   3.254   0.226  0.0019  0.0464  0.1214
  121WAT      O  557   0.854   3.150   1.718 -0.5776 -0.7272 -0.1465
  121WAT     H1  558   0.922   3.210   1.687  1.2464 -2.4083  0.3785
  121WAT     H2  559   0.867   3.144   1.812 -2.9663  0.6202  0.3472
  121WAT    EPW  560   0.864   3.157   1.726 -0.6521 -0.7712 -0.0121
  122WAT      O  561   0.226   2.088   1.981  0.2816  0.0147 -0.0249
  122WAT     H1  562   0.168   2.027   1.937  0.0719  0.0314  0.2241
  122WAT     H2  563   0.314   2.063   1.953  0.1112  0.4235 -0.9426
  122WAT    EPW  564   0.230   2.077   1.972  0.2315  0.0708 -0.1131
  123WAT      O  565   0.663   0.754   2.260  0.8794 -0.2320  0.2160
  123WAT     H1  566   0.662   0.849   2.274 -0.4762 -0.2100  0.1829
  123WAT     H2  567   0.736   0.722   2.312  0.2950  0.6495  1.6492
  123WAT    EPW  568   0.672   0.762   2.268  0.6235 -0.1129  0.4007
  124WAT      O  569   0.418   0.823   0.092  0.1974  0.1246 -0.6124
  124WAT     H1  570   0.358   0.787   0.157 -2.1793 -0.0287 -2.7611
  124WAT     H2  571   0.404   0.918   0.096  0.9757  0.2298 -0.0872
  124WAT    EPW  572   0.408   0.831   0.101 -0.0134  0.1183 -0.8266
  125WAT      O  573   3.430   3.844   0.027  0.1276  0.0118  0.1053
  125WAT     H1  574   3.416   3.918   0.086  0.3815  1.0619 -1.1050
  125WAT     H2  575   3.470   3.883  -0.052 -1.3244 -1.1370 -1.2683
  125WAT    EPW  576   3.434   3.859   0.024 -0.0304 -0.0012 -0.2355
  126WAT      O  577   3.050   2.079   3.147 -0.3126  0.1599 -0.0687
  126WAT     H1  578   3.026   1.995   3.187  0.1877  0.2094  0.3438
  126WAT     H2  579   2.978   2.098   3.086 -0.5280 -0.4661 -0.0143
  126WAT    EPW  580   3.037   2.070   3.145 -0.2750  0.0839 -0.0071
  127WAT      O  581   0.695   1.763   1.958 -0.3403 -0.1467  0.3932
  127WAT     H1  582   0.621   1.823   1.949 -0.3190 -0.2444 -0.6197
  127WAT     H2  583   0.711   1.757   2.052 -0.5076  1.2308  0.5285
  127WAT    EPW  584   0.687   1.770   1.969 -0.3596  0.0221  0.2774
  128WAT      O  585   2.978   1.968   2.543  0.0893 -0.0769  0.1626
  128WAT     H1  586   3.030   2.047   2.559 -0.1195  0.0772  0.0813
  128WAT     H2  587   2.977   1.923   2.627 -1.5836  1.0710  0.8062
  128WAT    EPW  588   2.985   1.972   2.556 -0.1589  0.0948  0.2368
  129WAT      O  589   1.150   2.354   0.612  0.1286 -0.4237 -0.0429
  129WAT     H1  590   1.094   2.311   0.548  0.5067 -0.9729 -0.0126
  129WAT     H2  591   1.199   2.420   0.561 -0.4285 -0.0459 -0.0945
  129WAT    EPW  592   1.149   2.357   0.597  0.1050 -0.4463 -0.0457
  130WAT      O  593   0.677   2.118   0.559  0.0049 -0.4417  0.1701
  130WAT     H1  594   0.661   2.204   0.598  0.8862 -0.4240  0.5169
  130WAT     H2  595   0.620   2.116   0.482  0.9974  1.0367 -0.6678
  130WAT    EPW  596   0.667   2.129   0.554  0.2520 -0.2444  0.1053
  131WAT      O  597   1.613   3.928   1.467  0.3257  0.0552  0.4304
  131WAT     H1  598   1.607   3.860   1.399  1.6993 -1.5370  1.8051
  131WAT     H2  599   1.617   4.010   1.418 -2.6724 -0.6592 -1.2808
  131WAT    EPW  600   1.613   3.930   1.452  0.1114 -0.2490  0.3861
  132WAT      O  601   2.445   3.372   0.361 -0.1298 -0.0360  0.4100
  132WAT     H1  602   2.466   3.442   0.299  1.6758 -0.3389  0.6301
  132WAT     H2  603   2.440   3.293   0.307 -1.1095  0.0785  0.3139
  132WAT    EPW  604   2.447   3.371   0.345 -0.0209 -0.0608  0.4263
  133WAT      O  605   2.780   4.141   0.468  0.8466 -0.2835  0.3557
  133WAT     H1  606   2.798   4.218   0.523  0.7075  0.5700 -0.7525
  133WAT     H2  607   2.785   4.067   0.528  2.5184  0.4341  1.1725
  133WAT    EPW  608   2.783   4.141   0.483  1.0487 -0.0763  0.3173
  134WAT      O  609   3.511   1.153   3.288  0.0804  0.0186  0.1525
  134WAT     H1  610   3.542   1.067   3.262  0.1563  0.1010 -0.0336
  134WAT     H2  611   3.420   1.156   3.258 -0.3502 -0.5103  1.3789
  134WAT    EPW  612   3.503   1.142   3.280  0.0336 -0.0403  0.2897
  135WAT      O  613   1.762   3.244   3.500  0.2854 -0.1648  0.1365
  135WAT     H1  614   1.850   3.283   3.493 -0.3555  1.6476  1.5495
  135WAT     H2  615   1.716   3.275   3.422  0.8932 -1.1844 -0.6505
  135WAT    EPW  616   1.768   3.254   3.489  0.2810 -0.0603  0.2191
  136WAT      O  617   0.001   4.035   3.371  0.2727 -0.3837 -0.1191
  136WAT     H1  618  -0.014   3.940   3.371 -0.7621 -0.2680 -1.9995
  136WAT     H2  619  -0.082   4.072   3.343  0.4461  1.1704  1.2610
  136WAT    EPW  620  -0.012   4.027   3.368  0.1591 -0.1635 -0.1851
  137WAT      O  621   3.700   3.446   0.637  0.2045 -0.2896 -0.0911
  137WAT     H1  622   3.677   3.427   0.547 -1.4474 -1.2613  0.4972
  137WAT     H2  623   3.674   3.538   0.650  0.1229 -0.2552 -0.4994
  137WAT    EPW  624   3.693   3.456   0.627 -0.0242 -0.4132 -0.0673
  138WAT      O  625   3.304   3.354   2.583  0.2772 -0.5074 -0.5283
  138WAT     H1  626   3.393   3.352   2.547 -0.3794 -2.0607 -2.2703
  138WAT     H2  627   3.269   3.439   2.556  0.9862 -0.1865 -0.4576
  138WAT    EPW  628   3.311   3.365   2.575  0.2841 -0.6699 -0.7487
  139WAT      O  629   2.202   2.601   1.392  0.0446  0.1065 -0.2132
  139WAT     H1  630   2.164   2.601   1.480  1.5168 -2.9163  0.5477
  139WAT     H2  631   2.285   2.647   1.401  0.9386 -1.5597  0.4263
  139WAT    EPW  632   2.208   2.607   1.404  0.3567 -0.5120 -0.0285
  140WAT      O  633   0.771   2.336   2.074  0.4471  0.1465 -0.0651
  140WAT     H1  634   0.770   2.250   2.032  1.3159 -0.0022  0.2040
  140WAT     H2  635   0.762   2.317   2.167  0.3603  0.3693 -0.0272
  140WAT    EPW  636   0.769   2.323   2.081  0.5503  0.1562 -0.0246
  141WAT      O  637   1.821   3.353   0.405 -0.0787 -0.1235  0.1375
  141WAT     H1  638   1.772   3.433   0.424  1.1642  0.5346  0.7001
  141WAT     H2  639   1.843   3.317   0.491 -0.8120 -1.2076 -0.1115
  141WAT    EPW  640   1.817   3.359   0.419 -0.0115 -0.1797  0.1789
  142WAT      O  641   3.467   3.194   0.093 -0.1761  0.3420 -0.1879
  142WAT     H1  642   3.428   3.259   0.035  1.1762  0.4366 -1.0233
  142WAT     H2  643   3.451   3.228   0.181 -2.3322  0.1494 -0.4357
  142WAT    EPW  644   3.460   3.207   0.097 -0.2821  0.3290 -0.3308
  143WAT      O  645   2.368   4.027   2.532  0.2276 -0.6487 -0.3984
  143WAT     H1  646   2.313   4.105   2.535  0.4267 -0.5030 -0.4689
  143WAT     H2  647   2.436   4.043   2.598 -0.5519 -1.3963  0.6220
  143WAT    EPW  648   2.370   4.040   2.541  0.1510 -0.7281 -0.2731
  144WAT      O  649   1.906   3.176   2.007 -0.2960 -0.2761 -0.1614
  144WAT     H1  650   1.840   3.141   1.948 -0.4464  0.1018 -0.2152
  144WAT     H2  651   1.926   3.103   2.066 -0.3671 -0.5564 -0.4833
  144WAT    EPW  652   1.900   3.162   2.007 -0.3252 -0.2632 -0.2109
  145WAT      O  653   3.517   1.849   3.811 -0.1053 -0.0546  0.1834
  145WAT     H1  654   3.610   1.863   3.794 -0.2105  1.4867  0.6776
  145WAT     H2  655   3.473   1.915   3.757 -0.9123 -0.6757  0.0629
  145WAT    EPW  656   3.524   1.860   3.802 -0.2256  0.0668  0.2327
  146WAT      O  657   3.419   4.066   1.882  0.5333  0.0963  0.2048
  146WAT     H1  658   3.407   4.008   1.957 -2.4762 -0.6135 -0.7093
  146WAT     H2  659   3.514   4.067   1.867  0.8685 -2.9489  1.5291
  146WAT    EPW  660   3.430   4.059   1.890  0.1806 -0.3990  0.2589
  147WAT      O  661   3.220   2.145   1.648 -0.3166  0.5221 -0.4484
  147WAT     H1  662   3.285   2.161   1.579  0.1860 -4.0169 -1.3288
  147WAT     H2  663   3.270   2.102   1.718 -2.0110 -2.0422 -0.6730
  147WAT    EPW  664   3.235   2.141   1.648 -0.4738 -0.4148 -0.5942
  148WAT      O  665   3.161   3.752   0.793  0.0731  0.0877  0.0737
  148WAT     H1  666   3.147   3.671   0.842  0.7426  0.2463  0.5399
  148WAT     H2  667   3.104   3.817   0.836 -1.4438 -0.3987 -1.0807
  148WAT    EPW  668   3.151   3.750   0.805 -0.0387  0.0445 -0.0171
  149WAT      O  669   2.915   3.013   3.617 -0.1395 -0.2584  0.0063
  149WAT     H1  670   2.950   3.100   3.602 -0.1548 -0.5894 -2.5026
  149WAT     H2  671   2.968   2.956   3.560 -2.1829 -1.3616 -0.8886
  149WAT    EPW  672   2.927   3.017   3.607 -0.4110 -0.4475 -0.4427
  150WAT      O  673   1.384   3.786   3.610 -0.3573  0.0502  0.0542
  150WAT     H1  674   1.302   3.737   3.604  1.1210 -2.4091 -2.1548
  150WAT     H2  675   1.450   3.719   3.627  1.4201  1.7521  0.1789
  150WAT    EPW  676   1.382   3.770   3.612  0.0721 -0.0497 -0.2207
  151WAT      O  677   2.747   0.186   2.566 -0.7731  0.1348 -0.1074
  151WAT     H1  678   2.663   0.160   2.526 -1.0906  0.8922  0.0530
  151WAT     H2  679   2.753   0.280   2.548 -0.3027  0.2227  0.5181
  151WAT    EPW  680   2.736   0.195   2.558 -0.7530  0.2463 -0.0037
  152WAT      O  681   1.507   4.003   0.395 -0.3394 -0.4482  0.1411
  152WAT     H1  682   1.480   4.094   0.401 -0.7859 -0.5665 -0.0440
  152WAT     H2  683   1.442   3.955   0.447  0.3718 -0.5718  0.9402
  152WAT    EPW  684   1.495   4.009   0.403 -0.3045 -0.4801  0.2221
  153WAT      O  685   1.970   3.353   0.831  0.0258 -0.4683  0.0688
  153WAT     H1  686   2.018   3.389   0.905 -0.2918 -1.1124  0.6068
  153WAT     H2  687   2.033   3.350   0.760 -0.1652  1.9819 -0.2944
  153WAT    EPW  688   1.985   3.357   0.832 -0.0413 -0.2301  0.0918
  154WAT      O  689   3.415   3.014   0.441 -0.3544  0.1561  0.1712
  154WAT     H1  690   3.488   2.956   0.417 -0.0451  0.5192  0.2352
  154WAT     H2  691   3.358   3.014   0.364 -1.5436 -2.0283  0.9279
  154WAT    EPW  692   3.417   3.006   0.428 -0.4705 -0.0841  0.2794
  155WAT      O  693   1.621   0.947   1.355  0.6867  0.3627 -0.0334
  155WAT     H1  694   1.663   1.031   1.371  0.7479  0.0631  1.5403
  155WAT     H2  695   1.636   0.897   1.435 -1.9958 -0.0586  0.2986
  155WAT    EPW  696   1.629   0.951   1.367  0.3410  0.2676  0.2179
  156WAT      O  697   1.176   0.005   3.809  0.5338  0.5463  0.0403
  156WAT     H1  698   1.146   0.030   3.721 -0.3244 -1.0217 -0.1449
  156WAT     H2  699   1.097   0.004   3.862  0.6062 -1.0605  0.1802
  156WAT    EPW  700   1.162   0.008   3.804  0.4301  0.1276  0.0344
  157WAT      O  701   1.633   3.936   0.684 -0.0223  0.9607 -0.1425
  157WAT     H1  702   1.607   3.968   0.597 -0.1992 -2.1749 -1.3916
  157WAT     H2  703   1.724   3.910   0.674 -0.3121 -0.3040  0.2770
  157WAT    EPW  704   1.641   3.937   0.671 -0.0839  0.3803 -0.2519
  158WAT      O  705   0.800   3.208   3.521  0.1186  0.1630  0.2053
  158WAT     H1  706   0.810   3.129   3.468  1.4539  0.2063  0.3721
  158WAT     H2  707   0.710   3.237   3.503  0.4762  0.1139 -1.9265
  158WAT    EPW  708   0.789   3.201   3.511  0.3419  0.1623 -0.0539
  159WAT      O  709   2.227   0.298   3.001 -0.3790 -0.3137  0.3044
  159WAT     H1  710   2.310   0.308   3.048 -0.2794  0.4277 -0.0146
  159WAT     H2  711   2.195   0.387   2.989 -0.1203 -0.4190 -1.5408
  159WAT    EPW  712   2.234   0.311   3.006 -0.3318 -0.2298  0.0190
  160WAT      O  713   0.245   0.793   1.345 -0.0761  0.0321 -0.1086
  160WAT     H1  714   0.313   0.856   1.371  0.7035 -1.0738  0.5872
  160WAT     H2  715   0.267   0.772   1.254  0.5264 -0.3098  0.1080
  160WAT    EPW  716   0.257   0.799   1.336  0.1062 -0.1588  0.0117
  161WAT      O  717   1.044   2.607   2.382  0.0210 -0.4710 -0.3710
  161WAT     H1  718   1.065   2.639   2.294 -1.0981 -0.6006 -0.7052
  161WAT     H2  719   1.061   2.682   2.439 -1.6437  0.4786 -1.0289
  161WAT    EPW  720   1.049   2.621   2.378 -0.3462 -0.3628 -0.5018
  162WAT      O  721   1.394   0.992   1.168 -0.1814 -0.0723 -0.3133
  162WAT     H1  722   1.423   0.921   1.225  0.7794  0.9543  0.5022
  162WAT     H2  723   1.312   0.959   1.130  0.7467 -2.0359 -0.7642
  162WAT    EPW  724   1.387   0.978   1.170  0.0677 -0.1959 -0.2652
  163WAT      O  725   3.358   2.550   1.630 -0.3769  0.2130 -0.0489
  163WAT     H1  726   3.373   2.627   1.575  0.7182 -0.2149 -0.3691
  163WAT     H2  727   3.297   2.581   1.697  0.1573  1.4076 -0.0858
  163WAT    EPW  728   3.352   2.564   1.632 -0.1620  0.3141 -0.0960
  164WAT      O  729   2.905   1.498   1.407  0.2049 -0.0746 -0.1141
  164WAT     H1  730   2.930   1.422   1.356  0.9993  0.5494 -0.6725
  164WAT     H2  731   2.818   1.476   1.441 -0.3167 -0.5348 -1.6738
  164WAT    EPW  732   2.897   1.485   1.405  0.2409 -0.0530 -0.3935
  165WAT      O  733   0.003   3.743   3.426 -0.3717  0.6072  0.0983
  165WAT     H1  734  -0.026   3.655   3.401  0.6071 -0.1618  1.5114
  165WAT     H2  735   0.009   3.740   3.522 -1.9148  2.7563  0.3196
  165WAT    EPW  736  -0.000   3.731   3.436 -0.4461  0.7892  0.3139
  166WAT      O  737   2.788   1.992   1.398 -0.7121  0.7921 -0.1833
  166WAT     H1  738   2.817   2.079   1.371 -1.4945  0.7201 -1.3039
  166WAT     H2  739   2.700   2.006   1.435 -0.2726  0.6651  0.9617
  166WAT    EPW  740   2.780   2.005   1.399 -0.7573  0.7658 -0.1801
  167WAT      O  741   1.120   4.217   2.010  0.1410  0.1346  0.4827
  167WAT     H1  742   1.086   4.130   1.992 -0.3979  0.5664 -0.6567
  167WAT     H2  743   1.113   4.226   2.106  1.9509 -1.7493  0.8597
  167WAT    EPW  744   1.115   4.207   2.021  0.3087 -0.0569  0.3821
  168WAT      O  745   2.824   2.383   3.159 -0.4481  0.0982 -0.1783
  168WAT     H1  746   2.822   2.345   3.247  1.8032 -2.2512 -1.0098
  168WAT     H2  747   2.916   2.406   3.144 -0.7621  0.3860 -1.9387
  168WAT    EPW  748   2.836   2.381   3.168 -0.1926 -0.1737 -0.5202
  169WAT      O  749   1.985   3.651   1.808  0.1035 -0.0654  0.1743
  169WAT     H1  750   2.011   3.707   1.881 -0.6361 -0.1161  0.4777
  169WAT     H2  751   1.907   3.606   1.838 -0.4914  0.2618 -0.8116
  169WAT    EPW  752   1.978   3.653   1.821 -0.0725 -0.0289  0.0843
  170WAT      O  753   1.491   2.765   3.013  0.3204  0.3255 -0.4537
  170WAT     H1  754   1.459   2.680   3.041 -0.0070  0.4441 -0.4651
  170WAT     H2  755   1.586   2.761   3.025  0.4673 -0.5099 -1.6855
  170WAT    EPW  756   1.500   2.754   3.018  0.2966  0.2309 -0.6177
  171WAT      O  757   0.851   2.487   3.232 -0.6520 -0.1628  0.0647
  171WAT     H1  758   0.864   2.579   3.254  1.4269 -0.2502 -0.5814
  171WAT     H2  759   0.903   2.439   3.298 -0.6714 -0.7922 -0.3672
  171WAT    EPW  760   0.860   2.493   3.244 -0.3803 -0.2573 -0.0775
  172WAT      O  761   1.201   1.179   1.361 -0.2631 -0.3664 -0.5343
  172WAT     H1  762   1.108   1.170   1.341 -0.5258 -2.2911  1.2188
  172WAT     H2  763   1.217   1.116   1.431  2.3148  0.1164 -0.5764
  172WAT    EPW  764   1.191   1.169   1.367  0.0423 -0.5566 -0.3087
  173WAT      O  765   1.486   0.574   0.902 -0.0128  0.0320  0.2671
  173WAT     H1  766   1.501   0.480   0.908  0.7441  0.1388  0.1938
  173WAT     H2  767   1.447   0.598   0.987 -3.3810 -0.8578 -0.8749
  173WAT    EPW  768   1.483   0.565   0.914 -0.3572 -0.0712  0.1068
  174WAT      O  769   1.840   3.800   3.001 -0.1992 -0.0572  0.0792
  174WAT     H1  770   1.834   3.854   2.922  1.5701  1.4512  0.9090
  174WAT     H2  771   1.925   3.756   2.993 -0.2293 -0.2671  0.9188
  174WAT    EPW  772   1.850   3.801   2.989  0.0302  0.1141  0.2994
  175WAT      O  773   3.024   2.367   2.380  0.0755 -0.1364  0.2449
  175WAT     H1  774   3.042   2.344   2.289  0.1042 -0.8527  0.4305
  175WAT     H2  775   3.111   2.382   2.418  0.0564  0.3118  0.1233
  175WAT    EPW  776   3.038   2.366   2.373  0.0767 -0.1717  0.2533
  176WAT      O  777   2.341   0.282   2.140 -0.2765 -0.3484  0.1813
  176WAT     H1  778   2.335   0.375   2.162  0.8325 -0.0487 -0.7394
  176WAT     H2  779   2.256   0.261   2.101 -1.1382 -0.1469  1.8350
  176WAT    EPW  780   2.329   0.291   2.138 -0.2439 -0.2823  0.2779
  177WAT      O  781   3.397   0.698   1.241  0.1552 -0.0106  0.1705
  177WAT     H1  782   3.416   0.775   1.294  0.4477  0.6614 -0.8737
  177WAT     H2  783   3.340   0.644   1.296  0.5307  0.6045  1.1887
  177WAT    EPW  784   3.392   0.701   1.255  0.2433  0.1591  0.1671
  178WAT      O  785   1.891   1.400   1.332 -0.2856 -0.0959 -0.0703
  178WAT     H1  786   1.911   1.309   1.356  0.6505  0.0640 -0.1763
  178WAT     H2  787   1.847   1.393   1.248  0.4671 -0.4253 -0.4491
  178WAT    EPW  788   1.888   1.387   1.324 -0.0628 -0.1182 -0.1343
  179WAT      O  789   0.513   0.254   1.342 -0.4215 -1.0263  0.1419
  179WAT     H1  790   0.604   0.263   1.372 -0.6663 -0.3628  0.7142
  179WAT     H2  791   0.497   0.335   1.294 -0.5162 -1.4202 -0.4952
  179WAT    EPW  792   0.523   0.266   1.340 -0.4663 -0.9907  0.1334
  180WAT      O  793   1.365   3.030   3.774  0.2173  0.1746  0.0708
  180WAT     H1  794   1.375   3.105   3.714  1.3342  1.5777  1.9019
  180WAT     H2  795   1.455   3.000   3.788  0.0356  0.2620  1.4867
  180WAT    EPW  796   1.378   3.036   3.768  0.3406  0.3712  0.4990
  181WAT      O  797   1.944   3.276   3.091  0.5851 -0.0790  0.1934
  181WAT     H1  798   1.994   3.274   3.172 -0.5692  0.7374  0.9464
  181WAT     H2  799   1.923   3.184   3.073 -0.4720 -0.1531  1.6699
  181WAT    EPW  800   1.948   3.264   3.099  0.2935  0.0189  0.4875
  182WAT      O  801   0.177   4.380   3.047 -0.4938  0.0402  0.2216
  182WAT     H1  802   0.083   4.393   3.033 -0.5450 -0.8983 -0.4385
  182WAT     H2  803   0.214   4.468   3.048 -1.5177  0.5014  1.6443
  182WAT    EPW  804   0.169   4.393   3.045 -0.6356 -0.0228  0.3222
  183WAT      O  805   2.176   2.253   2.090 -0.2136  0.4153  0.2264
  183WAT     H1  806   2.238   2.325   2.104  0.3530 -0.1705  0.7782
  183WAT     H2  807   2.198   2.189   2.157  0.1348 -0.8310 -1.0252
  183WAT    EPW  808   2.187   2.254   2.100 -0.0929  0.1737  0.1341
  184WAT      O  809   0.469   1.653   0.104 -0.1712  0.1179  0.0061
  184WAT     H1  810   0.505   1.736   0.136  1.3208  0.3242 -1.9787
  184WAT     H2  811   0.528   1.586   0.139 -1.7042 -0.2424  2.0865
  184WAT    EPW  812   0.482   1.655   0.113 -0.1766  0.0976  0.0187
  185WAT      O  813   1.435   2.879   1.474 -0.3359 -0.1155  0.5801
  185WAT     H1  814   1.343   2.900   1.462 -0.2230 -0.1435 -0.4245
  185WAT     H2  815   1.441   2.786   1.451 -0.0567 -0.1001  0.5869
  185WAT    EPW  816   1.424   2.869   1.469 -0.2842 -0.1172  0.4485
  186WAT      O  817   1.861   4.179   2.514  0.7971  0.8787  0.1770
  186WAT     H1  818   1.797   4.150   2.579  1.2658  0.5204  0.4865
  186WAT     H2  819   1.869   4.105   2.454 -1.1477  1.9292 -1.5062
  186WAT    EPW  820   1.854   4.165   2.514  0.6024  0.9700 -0.0042
  187WAT      O  821   2.474   3.931   2.806 -0.7089 -0.4206 -0.0646
  187WAT     H1  822   2.535   3.987   2.853 -0.9547 -0.7059  0.6025
  187WAT     H2  823   2.531   3.868   2.760 -0.5031 -0.9597  0.9026
  187WAT    EPW  824   2.490   3.930   2.806 -0.7142 -0.5294  0.1509
  188WAT      O  825   0.198   4.360   0.436  0.4796  0.2529  0.0606
  188WAT     H1  826   0.205   4.280   0.385  0.2948  1.5444 -2.0993
  188WAT     H2  827   0.164   4.331   0.521 -1.7447 -1.7298 -1.3819
  188WAT    EPW  828   0.194   4.346   0.441  0.1619  0.1617 -0.4146
  189WAT      O  829   1.557   4.014   0.989  0.7365  0.3537 -0.0825
  189WAT     H1  830   1.532   3.922   0.987 -0.2986  0.6190 -0.2386
  189WAT     H2  831   1.636   4.019   0.935 -0.2850 -0.1604 -1.7229
  189WAT    EPW  832   1.564   4.003   0.982  0.4653  0.3209 -0.3194
  190WAT      O  833   1.556   2.534   0.123 -0.1856 -0.5706  0.2846
  190WAT     H1  834   1.573   2.480   0.046  0.6040  0.1554 -0.0648
  190WAT     H2  835   1.642   2.563   0.152 -0.5995  0.8122  0.2311
  190WAT    EPW  836   1.569   2.531   0.116 -0.1361 -0.2924  0.2314
  191WAT      O  837   1.162   0.008   2.666 -0.4382  0.3770 -0.1896
  191WAT     H1  838   1.219  -0.002   2.742 -0.8435  0.4454  0.1269
  191WAT     H2  839   1.149  -0.081   2.633 -0.4453  0.3220 -0.0396
  191WAT    EPW  840   1.168  -0.005   2.671 -0.4926  0.3787 -0.1281
  192WAT      O  841   2.820   2.824   2.728 -0.0276  0.4188  0.6185
  192WAT     H1  842   2.868   2.903   2.754  0.1440  0.3209  0.6014
  192WAT     H2  843   2.728   2.846   2.741  0.0729  0.1771  1.9128
  192WAT    EPW  844   2.815   2.837   2.733  0.0083  0.3740  0.7870
  193WAT      O  845   2.302   1.229   1.608  0.6825  0.0666  0.2823
  193WAT     H1  846   2.235   1.276   1.659  0.8308  1.7922 -1.0144
  193WAT     H2  847   2.285   1.137   1.626 -0.0175  0.5621  2.4807
  193WAT    EPW  848   2.291   1.223   1.617  0.6097  0.3595  0.4012
  194WAT      O  849   0.344   0.801   3.324 -0.3480 -0.0333  0.4168
  194WAT     H1  850   0.365   0.715   3.287 -0.9415 -0.9438  2.0463
  194WAT     H2  851   0.345   0.786   3.419  0.6848  2.0568  0.7861
  194WAT    EPW  852   0.347   0.787   3.332 -0.2901  0.1223  0.6804
  195WAT      O  853   0.834   1.572   3.419  0.4682 -0.5711 -0.1471
  195WAT     H1  854   0.752   1.561   3.372  1.1182 -1.0830 -1.1915
  195WAT     H2  855   0.810   1.622   3.497 -0.9331 -1.2570 -0.1086
  195WAT    EPW  856   0.820   1.577   3.423  0.3691 -0.7291 -0.2798
  196WAT      O  857   2.171   1.416   0.723  0.3127  0.1513  0.2666
  196WAT     H1  858   2.191   1.483   0.658 -0.0740 -0.4436 -0.4819
  196WAT     H2  859   2.235   1.431   0.793  0.6099  0.9220 -0.1550
  196WAT    EPW  860   2.182   1.427   0.724  0.3009  0.1745  0.1122
  197WAT      O  861   3.279   2.961   2.592  0.2472  0.3612 -0.0159
  197WAT     H1  862   3.311   2.948   2.681  1.8901  0.1119 -0.6008
  197WAT     H2  863   3.233   3.045   2.594  0.4982  0.4832  0.9992
  197WAT    EPW  864   3.277   2.970   2.604  0.4970  0.3444  0.0409
  198WAT      O  865   2.454   3.357   0.652  0.4354  0.0433  0.2612
  198WAT     H1  866   2.547   3.337   0.656  0.3209 -0.7294 -0.6736
  198WAT     H2  867   2.429   3.343   0.561 -0.5720  0.3625  0.4656
  198WAT    EPW  868   2.463   3.353   0.641  0.2874 -0.0165  0.1649
  199WAT      O  869   1.456   1.414   1.642 -0.3702 -0.5475 -0.2137
  199WAT     H1  870   1.535   1.363   1.624 -1.2201 -2.0863  0.2714
  199WAT     H2  871   1.409   1.363   1.708 -2.7849 -0.7859 -1.9852
  199WAT    EPW  872   1.460   1.400   1.649 -0.8008 -0.7819 -0.3834
  200WAT      O  873   1.933   1.703   2.507  0.2367  0.8070 -0.4660
  200WAT     H1  874   1.934   1.663   2.595  1.2136 -1.1191 -1.2990
  200WAT     H2  875   1.857   1.664   2.465 -0.1305  1.6031 -0.5473
  200WAT    EPW  876   1.923   1.692   2.513  0.3171  0.6580 -0.5866
  201WAT      O  877   3.172   4.160   0.583 -0.7459  0.4362 -0.4595
  201WAT     H1  878   3.157   4.067   0.598 -0.2039  0.3291 -0.5733
  201WAT     H2  879   3.154   4.172   0.490  0.1776  0.2458 -0.6645
  201WAT    EPW  880   3.167   4.150   0.573 -0.5526  0.3969 -0.5016
  202WAT      O  881   0.323   2.856   1.657 -0.2910  0.5444 -0.3129
  202WAT     H1  882   0.313   2.829   1.566 -1.5249 -1.2680  0.3102
  202WAT     H2  883   0.380   2.790   1.696 -1.5081  0.0818  0.7226
  202WAT    EPW  884   0.329   2.844   1.650 -0.6143  0.2443 -0.0942
  203WAT      O  885   1.562   0.983   0.940  0.4001 -0.9259 -0.4916
  203WAT     H1  886   1.545   0.914   0.876 -0.9757 -0.9541 -0.1102
  203WAT     H2  887   1.495   0.972   1.007 -1.5610  2.3471 -1.6815
  203WAT    EPW  888   1.551   0.973   0.940 -0.0400 -0.4980 -0.5982
  204WAT      O  889   0.512   2.301   0.276 -0.5677  0.2408  0.0906
  204WAT     H1  890   0.428   2.288   0.320 -0.6228 -0.3310 -0.1911
  204WAT     H2  891   0.547   2.381   0.317 -1.2569  0.5005  0.1833
  204WAT    EPW  892   0.506   2.310   0.287 -0.6659  0.1997  0.0657
  205WAT      O  893   1.601   2.447   2.050 -0.9115  0.0773 -0.1214
  205WAT     H1  894   1.533   2.413   1.992 -1.5315 -0.3186  0.8324
  205WAT     H2  895   1.628   2.372   2.103 -0.0037  0.3231 -0.2093
  205WAT    EPW  896   1.596   2.433   2.049 -0.8736  0.0575 -0.0072
  206WAT      O  897   3.146   1.163   2.894 -0.0859  0.5059  0.4199
  206WAT     H1  898   3.066   1.134   2.850 -0.5369  0.6665  1.1241
  206WAT     H2  899   3.209   1.177   2.822 -1.3303  2.5113 -0.3699
  206WAT    EPW  900   3.144   1.161   2.878 -0.3095  0.7915  0.4086
  207WAT      O  901   2.370   4.247   1.703 -0.5639 -0.0775 -0.0507
  207WAT     H1  902   2.339   4.330   1.666  2.9077  2.7926  2.6790
  207WAT     H2  903   2.466   4.257   1.706 -0.0287 -3.9830  0.9829
  207WAT    EPW  904   2.379   4.260   1.699 -0.0355 -0.2140  0.4457
  208WAT      O  905   2.816   0.401   1.143 -0.2717 -0.3145 -0.3980
  208WAT     H1  906   2.899   0.447   1.132 -0.8681  0.8466 -0.1147
  208WAT     H2  907   2.750   0.470   1.149 -0.8965 -1.0309  2.8631
  208WAT    EPW  908   2.818   0.416   1.142 -0.4328 -0.2559  0.0695
  209WAT      O  909   0.813   2.914   2.598 -0.0243 -0.3175 -0.2032
  209WAT     H1  910   0.810   2.990   2.657  1.2780 -0.8118  0.5629
  209WAT     H2  911   0.825   2.951   2.511  0.3233  0.3861  0.1330
  209WAT    EPW  912   0.814   2.929   2.595  0.1933 -0.2899 -0.0578
  210WAT      O  913   1.917   0.943   3.736  0.1419 -0.0143  0.1746
  210WAT     H1  914   1.983   0.878   3.758  0.6250  0.7047  0.9162
  210WAT     H2  915   1.905   0.994   3.817 -0.7891  0.3279 -0.1587
  210WAT    EPW  916   1.924   0.941   3.750  0.0829  0.1256  0.2284
  211WAT      O  917   1.137   0.274   1.341 -0.1102  0.4699 -0.6172
  211WAT     H1  918   1.200   0.322   1.394 -0.3396  2.9008 -2.3580
  211WAT     H2  919   1.181   0.262   1.257 -0.9134 -0.3864 -0.9314
  211WAT    EPW  920   1.151   0.279   1.337 -0.2464  0.6776 -0.8882
  212WAT      O  921   1.785   0.744   0.540 -0.0904  0.4123  0.3571
  212WAT     H1  922   1.727   0.784   0.605 -0.2712 -1.2815  1.2919
  212WAT     H2  923   1.737   0.752   0.458 -0.7503  0.8464  0.7694
  212WAT    EPW  924   1.771   0.750   0.538 -0.2013  0.2461  0.5347
  213WAT      O  925   2.151   3.331   0.570  0.5932 -0.4171 -0.2478
  213WAT     H1  926   2.141   3.243   0.534 -0.2596 -0.1973 -0.5568
  213WAT     H2  927   2.184   3.384   0.497 -1.8558  0.2000 -0.9979
  213WAT    EPW  928   2.154   3.326   0.556  0.1577 -0.3067 -0.3875
  214WAT      O  929   1.909   3.727   2.460 -0.0142  0.2747 -0.3741
  214WAT     H1  930   1.884   3.634   2.459 -0.4996  0.3948  0.0605
  214WAT     H2  931   1.898   3.755   2.369 -0.4999  0.0717 -0.3801
  214WAT    EPW  932   1.904   3.718   2.448 -0.1423  0.2638 -0.3176
  215WAT      O  933   2.495   0.978   0.051 -0.3474 -0.2713  0.0883
  215WAT     H1  934   2.543   1.057   0.077 -0.0524 -0.7221  0.9396
  215WAT     H2  935   2.404   1.007   0.045 -0.3187  0.0024  0.9470
  215WAT    EPW  936   2.489   0.993   0.053 -0.3047 -0.2946  0.3138
  216WAT      O  937   2.675   1.826   0.504 -0.5868  0.4312  0.4685
  216WAT     H1  938   2.760   1.812   0.462 -2.2032  0.3430 -3.1208
  216WAT     H2  939   2.663   1.921   0.502 -1.5960  0.3004 -1.4424
  216WAT    EPW  940   2.685   1.837   0.499 -0.9331  0.4023 -0.2570
  217WAT      O  941   1.972   4.091   0.107  0.3818 -0.4875 -0.2175
  217WAT     H1  942   1.902   4.045   0.154 -0.2841 -1.7443 -2.3195
  217WAT     H2  943   1.931   4.171   0.075  0.6996  0.1277  0.8781
  217WAT    EPW  944   1.957   4.096   0.109  0.3359 -0.5721 -0.3502
  218WAT      O  945   2.882   1.577   3.217 -0.2289 -0.6836 -0.1559
  218WAT     H1  946   2.788   1.591   3.230 -0.3311 -1.1658 -0.3469
  218WAT     H2  947   2.905   1.510   3.281 -0.1023 -0.8633 -0.3870
  218WAT    EPW  948   2.873   1.570   3.227 -0.2257 -0.7709 -0.2116
  219WAT      O  949   0.935   2.572   1.072 -0.5577 -0.6574 -0.1223
  219WAT     H1  950   0.843   2.598   1.070 -0.2276  0.8699  1.4589
  219WAT     H2  951   0.979   2.645   1.115  1.0587 -2.2844  1.1582
  219WAT    EPW  952   0.929   2.585   1.077 -0.3010 -0.6706  0.2552
  220WAT      O  953   2.692   3.988   3.538  0.3684  1.0123  0.0488
  220WAT     H1  954   2.622   3.939   3.493  1.7657  0.4213 -1.6221
  220WAT     H2  955   2.646   4.052   3.592 -1.4625  1.0277 -1.4217
  220WAT    EPW  956   2.677   3.990   3.539  0.3112  0.9364 -0.3655
  221WAT      O  957   1.745   4.175   1.427 -0.0232  0.0943 -0.2064
  221WAT     H1  958   1.695   4.215   1.499 -2.1444 -1.0520 -0.9548
  221WAT     H2  959   1.807   4.117   1.471 -0.7590 -0.0155  0.7342
  221WAT    EPW  960   1.746   4.173   1.443 -0.4000 -0.0714 -0.1810
  222WAT      O  961   0.021   3.496   0.174  0.3091 -0.4471  0.3656
  222WAT     H1  962  -0.062   3.541   0.192 -0.9198 -2.1555 -0.7057
  222WAT     H2  963   0.075   3.562   0.130 -2.1633 -0.4515 -3.0126
  222WAT    EPW  964   0.017   3.511   0.171 -0.1791 -0.6730 -0.2212
  223WAT      O  965   2.238   2.461   0.923  0.8522  0.2671 -0.4182
  223WAT     H1  966   2.285   2.390   0.879  0.8425  0.3806 -0.6178
  223WAT     H2  967   2.216   2.522   0.852 -1.1422 -0.6195 -0.6158
  223WAT    EPW  968   2.242   2.460   0.908  0.5879  0.1651 -0.4706
  224WAT      O  969   2.533   1.450   2.708 -0.2099 -0.4052 -0.4955
  224WAT     H1  970   2.619   1.410   2.722 -0.6191 -1.1811 -0.1420
  224WAT     H2  971   2.544   1.502   2.628  0.4555 -0.8866 -0.7271
  224WAT    EPW  972   2.546   1.451   2.699 -0.1761 -0.5710 -0.4795
  225WAT      O  973   0.075   3.795   0.948  0.1767  0.4998 -0.7304
  225WAT     H1  974   0.067   3.889   0.960  1.8273  0.7406 -1.2692
  225WAT     H2  975   0.138   3.785   0.877 -0.7119 -1.0104 -1.3599
  225WAT    EPW  976   0.082   3.806   0.940  0.2772  0.3324 -0.8845
  226WAT      O  977   0.410   0.076   0.906  0.4373  0.5140  0.3910
  226WAT     H1  978   0.423   0.080   0.812  1.4691 -1.6834  0.3787
  226WAT     H2  979   0.316   0.066   0.917  0.4227 -0.5884 -0.5148
  226WAT    EPW  980   0.399   0.075   0.895  0.5715  0.0788  0.2699
  227WAT      O  981   3.359   0.529   1.638  0.5793 -0.1607 -0.4778
  227WAT     H1  982   3.328   0.440   1.657  2.1814 -0.5896  0.2147
  227WAT     H2  983   3.449   0.518   1.609  0.4440  1.1604 -1.5279
  227WAT    EPW  984   3.367   0.516   1.636  0.7728 -0.0431 -0.5249
  228WAT      O  985   3.294   2.582   3.458 -0.3326 -0.0198  0.2453
  228WAT     H1  986   3.251   2.560   3.541 -0.2898  1.1896  0.6094
  228WAT     H2  987   3.378   2.618   3.484 -0.2600  0.2291 -0.3354
  228WAT    EPW  988   3.299   2.584   3.473 -0.3173  0.1725  0.2168
  229WAT      O  989   0.981   2.504   2.932  0.3463 -0.0804  0.2528
  229WAT     H1  990   1.038   2.493   2.856  0.7142 -1.7768  0.7341
  229WAT     H2  991   0.899   2.461   2.907 -0.3722  1.3526 -0.0047
  229WAT    EPW  992   0.978   2.497   2.919  0.3001 -0.1151  0.2823
  230WAT      O  993   0.465   0.508   1.526  0.3382 -0.2584 -0.1726
  230WAT     H1  994   0.420   0.430   1.557  1.7711 -0.6971  0.8809
  230WAT     H2  995   0.405   0.580   1.548 -0.9840 -1.0287 -1.1450
  230WAT    EPW  996   0.451   0.507   1.533  0.3528 -0.4179 -0.1619
  231WAT      O  997   0.145   2.918   1.367 -0.4388  0.1863 -0.4963
  231WAT     H1  998   0.183   2.974   1.300 -0.8739  0.4895 -0.4957
  231WAT     H2  999   0.055   2.902   1.338 -1.4001  2.1890  1.0803
  231WAT    EPW 1000   0.138   2.924   1.355 -0.6230  0.4904 -0.2883
  232WAT      O 1001   0.610   0.431   1.832  0.1305  0.1408  0.0613
  232WAT     H1 1002   0.582   0.342   1.810  0.8021  0.5221 -2.5930
  232WAT     H2 1003   0.541   0.487   1.797 -0.0394  0.7343  1.2760
  232WAT    EPW 1004   0.597   0.426   1.825  0.1967  0.2694 -0.1286
  233WAT      O 1005   3.253   1.619   0.282  0.2872  0.0081 -0.1240
  233WAT     H1 1006   3.188   1.553   0.303  0.5177 -0.8717 -2.0336
  233WAT     H2 1007   3.218   1.665   0.206  0.2432  1.9873  1.0020
  233WAT    EPW 1008   3.240   1.616   0.275  0.3118  0.1531 -0.2274
  234WAT      O 1009   2.952   0.552   3.200  0.1676 -1.1301 -0.1407
  234WAT     H1 1010   2.945   0.644   3.228 -1.2522 -1.7846  1.8634
  234WAT     H2 1011   2.993   0.557   3.114  2.0305  1.2535  0.7552
  234WAT    EPW 1012   2.957   0.565   3.192  0.2261 -0.9020  0.2418
  235WAT      O 1013   2.915   2.949   3.248 -0.2450 -0.2076  0.4091
  235WAT     H1 1014   2.881   2.890   3.182 -2.0937  1.0993  0.1299
  235WAT     H2 1015   3.010   2.938   3.243 -0.4473 -1.6150 -1.0372
  235WAT    EPW 1016   2.923   2.940   3.239 -0.5155 -0.2209  0.1815
  236WAT      O 1017   3.661   0.176   3.573 -0.6028  0.0445 -0.2680
  236WAT     H1 1018   3.647   0.134   3.658 -0.9572  0.5371 -0.0781
  236WAT     H2 1019   3.694   0.106   3.517  1.0702  0.0280  0.6628
  236WAT    EPW 1020   3.663   0.161   3.577 -0.4289  0.1073 -0.1202
  237WAT      O 1021   3.317   0.581   2.386  0.3346  0.1379  0.6998
  237WAT     H1 1022   3.293   0.547   2.472  0.1030 -0.7475  0.2950
  237WAT     H2 1023   3.324   0.504   2.331 -2.0938  0.8578 -0.7390
  237WAT    EPW 1024   3.315   0.567   2.390 -0.0162  0.1161  0.4567
  238WAT      O 1025   1.434   1.538   3.104 -0.2269  0.2145  0.2358
  238WAT     H1 1026   1.368   1.575   3.045 -0.0818 -0.6703 -0.4884
  238WAT     H2 1027   1.383   1.498   3.174 -0.7312 -3.4026 -1.9521
  238WAT    EPW 1028   1.419   1.538   3.105 -0.2743 -0.3793 -0.1483
  239WAT      O 1029   0.859   2.480   0.435  0.0274  0.1616 -0.0756
  239WAT     H1 1030   0.869   2.387   0.459  1.8807  0.1841 -0.6182
  239WAT     H2 1031   0.870   2.527   0.518 -2.5534 -0.0927  0.5235
  239WAT    EPW 1032   0.862   2.474   0.449 -0.0686  0.1310 -0.0682
  240WAT      O 1033   2.425   2.297   0.304 -0.1207 -0.1786 -0.0881
  240WAT     H1 1034   2.458   2.286   0.215  0.0709 -0.4951  0.0170
  240WAT     H2 1035   2.489   2.251   0.359  0.4173  1.0269  0.3372
  240WAT    EPW 1036   2.438   2.289   0.300 -0.0244 -0.0613 -0.0181
  241WAT      O 1037   0.356   4.030   3.636 -0.4993 -0.4808 -0.4283
  241WAT     H1 1038   0.404   4.081   3.571  0.9423 -0.7324  0.3884
  241WAT     H2 1039   0.379   3.939   3.617 -0.2245 -0.5719  0.2982
  241WAT    EPW 1040   0.365   4.025   3.625 -0.2729 -0.5260 -0.2248
  242WAT      O 1041   2.845   3.563   0.135  0.2525  0.3461 -0.7458
  242WAT     H1 1042   2.890   3.486   0.100  1.0292  0.6820 -0.5095
  242WAT     H2 1043   2.895   3.637   0.101 -0.4288  0.7541 -0.8857
  242WAT    EPW 1044   2.857   3.563   0.126  0.2651  0.4442 -0.7331
  243WAT      O 1045   1.130   1.005   0.064 -0.4378 -0.3708  0.1940
  243WAT     H1 1046   1.091   1.024   0.150  1.6198  0.6309  0.9714
  243WAT     H2 1047   1.089   1.068   0.005  1.2203  1.9508  1.3645
  243WAT    EPW 1048   1.120   1.016   0.068  0.0523  0.0675  0.4510
  244WAT      O 1049   2.635   1.356   3.066  0.0053 -0.1414 -0.0968
  244WAT     H1 1050   2.675   1.343   2.980  1.1600 -0.8709  0.5175
  244WAT     H2 1051   2.543   1.376   3.048 -0.2626 -2.2588 -1.4531
  244WAT    EPW 1052   2.628   1.357   3.053  0.1222 -0.5169 -0.1947
  245WAT      O 1053   3.272   3.150   0.890  0.4322  0.0423  0.1025
  245WAT     H1 1054   3.295   3.069   0.936  2.7048  0.7392  0.3380
  245WAT     H2 1055   3.339   3.213   0.918 -0.1824  1.4755 -1.4860
  245WAT    EPW 1056   3.284   3.148   0.900  0.6509  0.3233 -0.0760
  246WAT      O 1057   0.442   0.167   0.237 -0.5174 -0.3175 -0.0859
  246WAT     H1 1058   0.373   0.167   0.171  0.8518 -1.5872 -1.5960
  246WAT     H2 1059   0.474   0.077   0.238  1.1937  0.2550  0.4704
  246WAT    EPW 1060   0.437   0.155   0.228 -0.1112 -0.4094 -0.2117
  247WAT      O 1061   0.139   3.466   2.874  0.2165 -0.0880  0.2148
  247WAT     H1 1062   0.096   3.407   2.813  1.1382 -1.0068  0.4145
  247WAT     H2 1063   0.232   3.463   2.849  0.3157  1.1408  0.3530
  247WAT    EPW 1064   0.146   3.458   2.863  0.3512 -0.0471  0.2594
  248WAT      O 1065   0.157   2.307   3.645 -0.6101  0.2358 -0.4618
  248WAT     H1 1066   0.237   2.358   3.654  0.8880 -2.0828  0.2566
  248WAT     H2 1067   0.182   2.233   3.589 -1.1018 -2.5686  2.7385
  248WAT    EPW 1068   0.171   2.304   3.639 -0.4774 -0.4399  0.0551
  249WAT      O 1069   3.631   0.453   1.935  0.1222 -0.4025  0.5301
  249WAT     H1 1070   3.725   0.458   1.949  0.4292  0.0511 -1.3619
  249WAT     H2 1071   3.613   0.360   1.921  0.5939 -0.3184 -0.7511
  249WAT    EPW 1072   3.641   0.441   1.935  0.2249 -0.3316  0.1116
  250WAT      O 1073   1.185   3.053   0.165 -0.1068  0.1421 -0.0321
  250WAT     H1 1074   1.129   2.995   0.113 -1.0528  2.3712 -1.6546
  250WAT     H2 1075   1.266   3.060   0.115 -0.1107  0.4414  0.0008
  250WAT    EPW 1076   1.188   3.046   0.152 -0.2321  0.4756 -0.2417
  251WAT      O 1077   3.094   3.176   2.530 -0.4536  0.3273 -0.8729
  251WAT     H1 1078   3.144   3.239   2.582  0.1486 -0.8720  0.0390
  251WAT     H2 1079   3.003   3.191   2.556 -0.3048  0.7461 -0.5878
  251WAT    EPW 1080   3.088   3.186   2.541 -0.3546  0.2244 -0.7150
  252WAT      O 1081   2.169   1.115   3.024  0.6156  0.5269  0.0680
  252WAT     H1 1082   2.097   1.095   3.085  1.3654  1.1062  1.1746
  252WAT     H2 1083   2.240   1.146   3.080  1.3905  0.9317 -1.1008
  252WAT    EPW 1084   2.169   1.117   3.040  0.8167  0.6567  0.0598
  253WAT      O 1085   3.206   0.508   2.654  0.0952 -0.0882  0.3347
  253WAT     H1 1086   3.114   0.499   2.630  0.5824 -0.3563 -1.6132
  253WAT     H2 1087   3.236   0.418   2.668  0.3955 -0.1262 -0.4842
  253WAT    EPW 1088   3.198   0.495   2.653  0.1990 -0.1286 -0.0302
  254WAT      O 1089   3.537   4.326   1.056  0.0311  0.1241 -0.6948
  254WAT     H1 1090   3.445   4.307   1.041 -0.0354  0.9943 -1.4907
  254WAT     H2 1091   3.584   4.252   1.016 -0.3235 -2.3393  2.9470
  254WAT    EPW 1092   3.531   4.314   1.049 -0.0244 -0.0860 -0.3195
  255WAT      O 1093   3.688   0.918   1.451  0.0509  0.1701  0.5766
  255WAT     H1 1094   3.725   0.852   1.509  0.0005  0.3741  0.8451
  255WAT     H2 1095   3.736   0.908   1.369  1.3661  1.0293  1.2056
  255WAT    EPW 1096   3.699   0.908   1.448  0.2177  0.3104  0.6949
  256WAT      O 1097   0.075   3.250   2.698 -0.3308 -0.3450 -0.1248
  256WAT     H1 1098   0.141   3.232   2.630  1.3922  0.7851  1.1591
  256WAT     H2 1099   0.091   3.184   2.765 -0.3810  0.0617  0.2894
  256WAT    EPW 1100   0.086   3.239   2.698 -0.1102 -0.1423  0.0992
  257WAT      O 1101   0.422   3.742   2.982  0.2431  0.6555  0.4836
  257WAT     H1 1102   0.336   3.783   2.992 -0.7189 -1.2875  0.6836
  257WAT     H2 1103   0.462   3.749   3.068 -0.0076  0.9467  0.5775
  257WAT    EPW 1104   0.416   3.749   2.995  0.0831  0.4376  0.5224
  258WAT      O 1105   0.383   4.373   2.134  0.3518  0.4742 -0.5594
  258WAT     H1 1106   0.421   4.308   2.192  0.5258  2.0117  1.1276
  258WAT     H2 1107   0.312   4.327   2.089  0.4704 -0.8644  0.5732
  258WAT    EPW 1108   0.379   4.358   2.136  0.3904  0.5005 -0.1875
  259WAT      O 1109   0.127   2.351   2.395 -0.1591  0.1248 -0.1843
  259WAT     H1 1110   0.211   2.311   2.375 -1.1974 -1.6994 -1.1856
  259WAT     H2 1111   0.147   2.419   2.459  2.0995 -0.0023 -0.6878
  259WAT    EPW 1112   0.141   2.355   2.401  0.0018 -0.1326 -0.3828
  260WAT      O 1113   1.225   0.690   2.670 -1.0130 -0.2577 -0.3543
  260WAT     H1 1114   1.197   0.642   2.592 -0.1667 -1.2329 -0.0763
  260WAT     H2 1115   1.287   0.632   2.713 -1.8015  0.0613  1.3033
  260WAT    EPW 1116   1.229   0.676   2.666 -1.0054 -0.3443 -0.0990
  261WAT      O 1117   2.010   3.713   0.101 -0.0938 -0.5552  0.8343
  261WAT     H1 1118   1.928   3.717   0.052  0.5055 -0.5968 -0.2020
  261WAT     H2 1119   2.021   3.620   0.122 -0.9022 -0.3979  2.0342
  261WAT    EPW 1120   2.000   3.701   0.097 -0.1214 -0.5400  0.8559
  262WAT      O 1121   1.867   3.984   3.302  0.5077  0.1961  0.0308
  262WAT     H1 1122   1.828   3.943   3.225  0.6579 -0.2371  0.1761
  262WAT     H2 1123   1.940   4.035   3.269 -0.1474  0.9727 -0.2381
  262WAT    EPW 1124   1.872   3.985   3.288  0.4411  0.2414  0.0145
  263WAT      O 1125   1.491   2.064   3.559  0.0572 -0.4716 -0.0902
  263WAT     H1 1126   1.473   2.074   3.465 -1.1475 -0.5074  0.1158
  263WAT     H2 1127   1.575   2.018   3.562 -0.0077 -0.7029 -1.1619
  263WAT    EPW 1128   1.500   2.059   3.547 -0.1103 -0.5069 -0.2044
  264WAT      O 1129   2.099   4.369   0.864  0.0786 -0.5841 -0.1334
  264WAT     H1 1130   2.056   4.407   0.788  3.1689  1.1057 -1.2218
  264WAT     H2 1131   2.062   4.281   0.871 -2.5487  0.2847 -1.6133
  264WAT    EPW 1132   2.088   4.362   0.855  0.1396 -0.2466 -0.4721
  265WAT      O 1133   2.536   3.557   0.112 -1.1738 -0.5876  0.1907
  265WAT     H1 1134   2.480   3.633   0.096 -2.3335 -1.6640 -1.1293
  265WAT     H2 1135   2.622   3.595   0.131 -1.1738  1.0721 -2.5053
  265WAT    EPW 1136   2.540   3.572   0.112 -1.3268 -0.5107 -0.3390
  266WAT      O 1137   0.289   3.310   0.551 -0.3411 -0.1459 -0.1554
  266WAT     H1 1138   0.224   3.300   0.481 -1.2155 -0.9164  0.7237
  266WAT     H2 1139   0.320   3.399   0.542 -1.2644  0.1253 -0.8478
  266WAT    EPW 1140   0.284   3.320   0.540 -0.5782 -0.2118 -0.1308
  267WAT      O 1141   2.386   2.646   3.736 -0.1546  0.2067 -0.2793
  267WAT     H1 1142   2.366   2.553   3.731 -0.8463  0.3434 -0.1875
  267WAT     H2 1143   2.380   2.677   3.645  2.3896 -0.2678 -0.6989
  267WAT    EPW 1144   2.383   2.638   3.723  0.0897  0.1622 -0.3226
  268WAT      O 1145   0.922   0.633   3.435 -0.4175  0.3021 -0.1378
  268WAT     H1 1146   0.873   0.712   3.415  1.2844  1.5323  0.3903
  268WAT     H2 1147   0.980   0.621   3.359 -0.2527 -0.1184  0.0487
  268WAT    EPW 1148   0.923   0.642   3.422 -0.1713  0.4089 -0.0435
  269WAT      O 1149   0.224   2.875   0.970 -0.4387 -0.1703 -0.0883
  269WAT     H1 1150   0.247   2.902   1.059 -0.9087 -0.6580  0.1871
  269WAT     H2 1151   0.256   2.946   0.914 -0.3888  0.2701  0.4954
  269WAT    EPW 1152   0.231   2.888   0.974 -0.4941 -0.1765  0.0250
  270WAT      O 1153   2.267   1.600   3.555  0.2462 -1.0509  0.7201
  270WAT     H1 1154   2.242   1.692   3.562  0.1725 -1.1900  2.7793
  270WAT     H2 1155   2.227   1.558   3.630  0.6416 -2.7090  0.0590
  270WAT    EPW 1156   2.259   1.606   3.566  0.2886 -1.2879  0.9045
  271WAT      O 1157   0.625   4.122   3.060 -0.2818  0.1223  0.0515
  271WAT     H1 1158   0.569   4.081   2.994  0.9117 -0.8262 -0.3978
  271WAT     H2 1159   0.686   4.053   3.086  0.1388  0.8888  1.1512
  271WAT    EPW 1160   0.625   4.107   3.055 -0.0689  0.0983  0.1373
  272WAT      O 1161   3.088   2.999   2.264  0.0280  0.6544  0.3563
  272WAT     H1 1162   3.175   2.959   2.276  0.9150  2.3632 -0.0850
  272WAT     H2 1163   3.072   3.045   2.346 -1.3233 -1.1138  1.1503
  272WAT    EPW 1164   3.097   3.000   2.277 -0.0332  0.6465  0.4028
  273WAT      O 1165   1.074   0.856   1.176  0.3278  0.0025  0.0121
  273WAT     H1 1166   1.032   0.829   1.094  2.1680 -1.3668 -0.5373
  273WAT     H2 1167   1.030   0.938   1.199 -0.7727  0.0210 -1.9254
  273WAT    EPW 1168   1.063   0.863   1.168  0.4253 -0.1757 -0.3159
  274WAT      O 1169   0.470   2.004   1.907  0.1933 -0.2691 -0.1473
  274WAT     H1 1170   0.531   2.075   1.885 -0.7945  0.5052 -0.5093
  274WAT     H2 1171   0.438   1.973   1.822  1.3725 -1.8765 -0.0449
  274WAT    EPW 1172   0.474   2.009   1.892  0.2185 -0.3790 -0.1816
  275WAT      O 1173   1.479   1.866   1.779  0.0831  0.3192  0.0125
  275WAT     H1 1174   1.497   1.778   1.812  0.1147 -0.4199 -1.8457
  275WAT     H2 1175   1.560   1.914   1.793  0.8960 -0.6638 -1.0932
  275WAT    EPW 1176   1.492   1.860   1.785  0.1945  0.0921 -0.3784
  276WAT      O 1177   1.083   1.312   0.708  0.2648  0.3286  0.1674
  276WAT     H1 1178   1.156   1.250   0.715 -0.4324 -0.4466  0.7512
  276WAT     H2 1179   1.074   1.349   0.796 -1.7169 -1.5613  0.8541
  276WAT    EPW 1180   1.091   1.308   0.721 -0.0885 -0.0229  0.3350
  277WAT      O 1181   2.669   2.848   3.449  0.0218 -0.4558 -0.5994
  277WAT     H1 1182   2.736   2.779   3.453  0.3293 -0.1469 -0.4111
  277WAT     H2 1183   2.699   2.906   3.380  0.3208  0.0688 -0.0372
  277WAT    EPW 1184   2.682   2.846   3.441  0.1018 -0.3459 -0.5004
  278WAT      O 1185   2.775   2.035   3.633 -0.7253 -0.2944 -0.4255
  278WAT     H1 1186   2.798   1.969   3.567  0.3313  0.6574 -1.0480
  278WAT     H2 1187   2.857   2.051   3.680 -1.5378 -1.2457  1.4478
  278WAT    EPW 1188   2.789   2.028   3.631 -0.6931 -0.2943 -0.2605
  279WAT      O 1189   2.223   2.716   2.855 -0.0930  0.1207 -0.3583
  279WAT     H1 1190   2.176   2.793   2.823  0.8614  1.1667  0.6677
  279WAT     H2 1191   2.188   2.643   2.803 -0.4839  1.3497 -1.8802
  279WAT    EPW 1192   2.212   2.716   2.844 -0.0187  0.4208 -0.4237
  280WAT      O 1193   3.519   1.801   2.334  0.1740 -0.3292 -0.0909
  280WAT     H1 1194   3.467   1.727   2.303 -1.3992  0.6197  0.1808
  280WAT     H2 1195   3.544   1.848   2.254  2.8005 -2.0813 -0.4469
  280WAT    EPW 1196   3.516   1.797   2.319  0.3130 -0.4352 -0.1021
  281WAT      O 1197   2.249   1.086   0.835  0.7435 -0.0042 -0.8224
  281WAT     H1 1198   2.201   1.039   0.903  2.6265 -0.6057  0.1689
  281WAT     H2 1199   2.283   1.017   0.778  0.2578  0.4274 -1.6633
  281WAT    EPW 1200   2.247   1.071   0.836  0.9278 -0.0266 -0.8026
  282WAT      O 1201   1.045   0.498   1.177  0.0976  0.1597  0.4496
  282WAT     H1 1202   1.126   0.548   1.165 -0.1290  0.8403  1.4997
  282WAT     H2 1203   1.068   0.430   1.240 -0.0176  0.0298  0.3515
  282WAT    EPW 1204   1.058   0.496   1.184  0.0525  0.2323  0.5751
  283WAT      O 1205   2.262   1.759   0.016 -0.1519 -0.2859  0.1338
  283WAT     H1 1206   2.309   1.839   0.035 -2.2456  1.1361 -0.2869
  283WAT     H2 1207   2.265   1.751  -0.080  0.2099 -0.8317  0.1844
  283WAT    EPW 1208   2.268   1.768   0.005 -0.3803 -0.1703  0.0850
  284WAT      O 1209   0.954   0.517   1.613 -0.2644  0.0420  0.2521
  284WAT     H1 1210   0.930   0.492   1.703 -0.8451  0.6440  0.2699
  284WAT     H2 1211   0.993   0.603   1.622  1.6663 -0.7784  0.1750
  284WAT    EPW 1212   0.956   0.525   1.626 -0.0863  0.0132  0.2443
  285WAT      O 1213   0.484   2.786   0.426  0.4473  0.0385  0.0049
  285WAT     H1 1214   0.391   2.808   0.420  0.7812  1.0805 -3.4127
  285WAT     H2 1215   0.514   2.830   0.506 -1.7425  0.5802  0.5865
  285WAT    EPW 1216   0.476   2.795   0.436  0.2025  0.2474 -0.3691
  286WAT      O 1217   1.786   1.914   3.555  0.1787 -0.2176 -0.4308
  286WAT     H1 1218   1.869   1.954   3.529  0.3261 -0.0147  0.3273
  286WAT     H2 1219   1.798   1.821   3.539 -0.0443 -0.0273 -1.8867
  286WAT    EPW 1220   1.799   1.907   3.550  0.1687 -0.1658 -0.5228
  287WAT      O 1221   0.134   0.289   2.343  0.2526 -0.3055  0.1983
  287WAT     H1 1222   0.221   0.251   2.348  0.5695  0.4029  0.2216
  287WAT     H2 1223   0.091   0.243   2.271  0.2605 -1.4197  0.8890
  287WAT    EPW 1224   0.140   0.278   2.334  0.2954 -0.3590  0.2925
  288WAT      O 1225   1.637   0.329   3.622 -0.0100  0.1902 -0.0403
  288WAT     H1 1226   1.563   0.339   3.562  1.2444  1.8646 -1.3874
  288WAT     H2 1227   1.628   0.401   3.684  0.0802 -0.0677  0.2781
  288WAT    EPW 1228   1.626   0.340   3.622  0.1673  0.3770 -0.1760
  289WAT      O 1229   1.755   3.759   3.821 -0.6311 -0.0248 -0.0019
  289WAT     H1 1230   1.757   3.819   3.746 -0.1813  1.9898  1.5253
  289WAT     H2 1231   1.771   3.673   3.783  0.3078  1.0043 -2.1270
  289WAT    EPW 1232   1.757   3.756   3.806 -0.4479  0.3767 -0.0808
  290WAT      O 1233   3.161   4.103   2.171  0.5201  0.1243  0.2467
  290WAT     H1 1234   3.157   4.073   2.081  0.8844  1.7871 -0.3525
  290WAT     H2 1235   3.088   4.164   2.179  0.1177 -0.4689  1.2681
  290WAT    EPW 1236   3.151   4.107   2.160  0.5151  0.2654  0.3024
  291WAT      O 1237   3.377   4.353   0.663 -0.2351 -0.5056 -0.7758
  291WAT     H1 1238   3.342   4.264   0.653  0.8717 -0.9946 -0.4626
  291WAT     H2 1239   3.434   4.365   0.587  0.4161 -0.4639 -0.2935
  291WAT    EPW 1240   3.380   4.343   0.651 -0.0032 -0.5646 -0.6709
  292WAT      O 1241   0.248   3.597   2.165 -0.0902 -0.1485  0.3331
  292WAT     H1 1242   0.333   3.610   2.123 -0.6456  2.1477 -0.2492
  292WAT     H2 1243   0.231   3.504   2.156  1.9508 -0.5104 -0.3344
  292WAT    EPW 1244   0.257   3.587   2.158  0.1057  0.1066  0.1682
  293WAT      O 1245   3.023   3.307   3.317 -0.2645  0.0699 -0.1601
  293WAT     H1 1246   2.999   3.227   3.271  0.6469 -0.1833 -0.2225
  293WAT     H2 1247   2.977   3.376   3.270 -1.6984 -0.4841  0.3776
  293WAT    EPW 1248   3.014   3.305   3.305 -0.3334 -0.0366 -0.0974
  294WAT      O 1249   0.213   3.189   3.209  0.4314 -0.2830 -0.0750
  294WAT     H1 1250   0.304   3.183   3.237  0.2292 -0.2861  0.6007
  294WAT     H2 1251   0.169   3.236   3.280 -0.6745 -2.7702  1.0175
  294WAT    EPW 1252   0.219   3.195   3.222  0.2589 -0.6115  0.1583
  295WAT      O 1253   2.800   0.834   2.305  0.4688 -0.0261  0.2128
  295WAT     H1 1254   2.782   0.817   2.212 -0.5998 -0.4472  0.4837
  295WAT     H2 1255   2.774   0.925   2.318 -2.2421 -0.7773  0.7282
  295WAT    EPW 1256   2.795   0.844   2.294 -0.0297 -0.1807  0.3165
  296WAT      O 1257   1.506   4.010   2.240 -0.2480  0.2238  0.0585
  296WAT     H1 1258   1.428   4.056   2.272 -0.8104  0.0406 -1.0117
  296WAT     H2 1259   1.575   4.035   2.301 -1.3645 -0.4364  1.6707
  296WAT    EPW 1260   1.505   4.020   2.252 -0.4695  0.1125  0.1300
  297WAT      O 1261   2.327   1.250   2.778  0.4440  0.7108  0.2985
  297WAT     H1 1262   2.290   1.324   2.826 -0.7656  1.3022 -1.4560
  297WAT     H2 1263   2.399   1.288   2.727 -0.3701  0.7786 -0.8375
  297WAT    EPW 1264   2.332   1.265   2.778  0.1771  0.7978 -0.0828
  298WAT      O 1265   3.381   0.794   3.598  0.0583  0.1799 -0.2210
  298WAT     H1 1266   3.309   0.851   3.570 -0.2866  0.1253  0.5347
  298WAT     H2 1267   3.442   0.853   3.643  0.5155  0.2341 -0.9020
  298WAT    EPW 1268   3.379   0.809   3.600  0.0731  0.1798 -0.2112
  299WAT      O 1269   2.480   4.292   0.843  0.3325 -0.4734  0.1255
  299WAT     H1 1270   2.485   4.330   0.931 -0.9079 -0.4781  0.2063
  299WAT     H2 1271   2.544   4.220   0.844  2.5442  1.3549  0.0597
  299WAT    EPW 1272   2.489   4.288   0.855  0.4606 -0.2329  0.1275
  300WAT      O 1273   2.529   1.327   1.752  0.6457 -0.0005  0.1671
  300WAT     H1 1274   2.568   1.347   1.666 -0.4781  0.5951 -0.2223
  300WAT     H2 1275   2.446   1.285   1.732  0.5970 -0.3176  0.9829
  300WAT    EPW 1276   2.523   1.324   1.738  0.4910  0.0362  0.2233
  301WAT      O 1277   2.269   2.167   3.008  0.2538  0.3406  0.7074
  301WAT     H1 1278   2.338   2.233   3.017  0.4646  0.4615 -1.3569
  301WAT     H2 1279   2.221   2.193   2.929  0.3614 -1.9919 -0.2072
  301WAT    EPW 1280   2.272   2.179   2.998  0.2958  0.0489  0.3145
  302WAT      O 1281   3.111   4.370   2.595 -0.1974 -0.0786  0.2958
  302WAT     H1 1282   3.188   4.320   2.566  0.7561  1.9074 -0.8046
  302WAT     H2 1283   3.094   4.431   2.523 -2.6683 -0.2630  0.6430
  302WAT    EPW 1284   3.119   4.371   2.582 -0.3975  0.1590  0.1965
  303WAT      O 1285   2.020   1.432   3.425  0.3658 -0.1055 -0.4329
  303WAT     H1 1286   1.963   1.502   3.456  1.8473  0.8414  0.3063
  303WAT     H2 1287   2.011   1.433   3.330  2.5705  3.2171 -0.7764
  303WAT    EPW 1288   2.011   1.441   3.417  0.8520  0.4576 -0.3807
  304WAT      O 1289   1.994   2.856   2.799 -0.0210 -0.3552 -0.1585
  304WAT     H1 1290   2.019   2.941   2.761 -2.6621  1.4678  1.7756
  304WAT     H2 1291   1.911   2.835   2.756 -1.7031  0.4331  2.4914
  304WAT    EPW 1292   1.987   2.865   2.788 -0.5912 -0.0108  0.4461
  305WAT      O 1293   1.379   3.438   2.121  0.2674 -0.4878 -0.7794
  305WAT     H1 1294   1.378   3.512   2.183 -0.1105  1.1171 -2.6016
  305WAT     H2 1295   1.289   3.406   2.122  0.2698 -0.4908 -0.4773
  305WAT    EPW 1296   1.367   3.444   2.129  0.2179 -0.2765 -0.9799
  306WAT      O 1297   0.086   2.834   2.576 -0.9348  0.7545  0.0279
  306WAT     H1 1298   0.018   2.896   2.604 -0.5224  0.1136  2.7264
  306WAT     H2 1299   0.146   2.830   2.650  0.0984 -1.4320 -0.8502
  306WAT    EPW 1300   0.085   2.842   2.589 -0.7441  0.3816  0.2680
  307WAT      O 1301   1.978   2.680   3.239  0.1518  0.1033 -0.1279
  307WAT     H1 1302   2.063   2.635   3.238  0.4884  0.7238 -1.4386
  307WAT     H2 1303   1.979   2.732   3.320  1.4230  0.8415 -0.5927
  307WAT    EPW 1304   1.989   2.681   3.250  0.3639  0.2825 -0.3620
  308WAT      O 1305   1.132   3.232   0.987 -1.0420 -0.2105  0.0568
  308WAT     H1 1306   1.145   3.208   1.079  0.6534 -0.1109 -0.1232
  308WAT     H2 1307   1.155   3.325   0.984 -0.4367 -0.3752 -0.5729
  308WAT    EPW 1308   1.137   3.241   0.999 -0.7386 -0.2191 -0.0500
  309WAT      O 1309   2.842   3.739   0.377 -0.3187 -0.3400 -0.0563
  309WAT     H1 1310   2.901   3.678   0.422 -0.1421 -0.1631 -0.0474
  309WAT     H2 1311   2.815   3.692   0.298 -1.0860 -0.8839  0.5133
  309WAT    EPW 1312   2.846   3.725   0.373 -0.3966 -0.3884  0.0200
  310WAT      O 1313   0.347   2.761   3.054 -0.1914  0.0991 -0.1362
  310WAT     H1 1314   0.318   2.849   3.077 -0.4670 -0.6492  2.6928
  310WAT     H2 1315   0.310   2.745   2.967 -2.8422  1.5947  0.6283
  310WAT    EPW 1316   0.338   2.770   3.045 -0.5774  0.1977  0.3378
  311WAT      O 1317   1.614   1.893   1.019 -0.0659  0.0811 -0.3312
  311WAT     H1 1318   1.528   1.927   0.992 -1.3166 -0.8866  2.0720
  311WAT     H2 1319   1.666   1.971   1.037 -1.3345  0.7428  0.6583
  311WAT    EPW 1320   1.609   1.908   1.018 -0.3982  0.0407  0.1162
  312WAT      O 1321   1.559   2.308   3.721 -0.0887  0.1770  0.2678
  312WAT     H1 1322   1.532   2.237   3.662  1.6990 -0.1183 -0.2311
  312WAT     H2 1323   1.585   2.379   3.662 -1.5851  1.1858  0.7621
  312WAT    EPW 1324   1.559   2.308   3.706 -0.0503  0.2711  0.2672
  313WAT      O 1325   2.643   1.800   2.620 -0.0054  0.2023  0.3012
  313WAT     H1 1326   2.558   1.782   2.581 -0.5508  0.7500  1.2170
  313WAT     H2 1327   2.699   1.728   2.589 -0.9199 -0.4364  0.1008
  313WAT    EPW 1328   2.639   1.788   2.611 -0.1979  0.1903  0.3956
  314WAT      O 1329   2.807   0.846   0.232 -0.0591  0.2372  0.1738
  314WAT     H1 1330   2.757   0.783   0.285  0.9805 -0.5936  0.2015
  314WAT     H2 1331   2.882   0.796   0.200 -0.3182  0.9044 -1.5677
  314WAT    EPW 1332   2.810   0.831   0.235  0.0438  0.2156 -0.0522
  315WAT      O 1333   3.277   1.809   0.852  0.0308  0.4165 -0.5961
  315WAT     H1 1334   3.221   1.883   0.876 -0.2709 -0.1591  0.5386
  315WAT     H2 1335   3.230   1.732   0.884  0.9408 -0.1619 -0.6267
  315WAT    EPW 1336   3.264   1.809   0.859  0.1110  0.2643 -0.4505
  316WAT      O 1337   0.333   2.146   1.066  0.4594 -0.1642 -0.0341
  316WAT     H1 1338   0.255   2.094   1.084  1.0563 -1.0458  0.0827
  316WAT     H2 1339   0.351   2.131   0.973 -1.2265  2.4687 -0.9076
  316WAT    EPW 1340   0.325   2.137   1.056  0.3157  0.0668 -0.1339
  317WAT      O 1341   2.080   3.945   2.472 -0.3474 -0.2048 -0.1695
  317WAT     H1 1342   2.045   3.856   2.465 -0.2949 -0.2956  0.6238
  317WAT     H2 1343   2.173   3.933   2.489 -0.6161 -0.0479  1.5832
  317WAT    EPW 1344   2.088   3.932   2.473 -0.3760 -0.1961  0.1663
  318WAT      O 1345   3.164   3.850   3.132 -0.0516  0.0643 -0.2164
  318WAT     H1 1346   3.154   3.895   3.048  0.5565  1.3494  0.3712
  318WAT     H2 1347   3.168   3.757   3.110 -1.3344  0.2766 -1.4762
  318WAT    EPW 1348   3.163   3.843   3.118 -0.1406  0.2618 -0.3050
  319WAT      O 1349   2.092   3.021   3.135  0.3929 -0.4594  0.6267
  319WAT     H1 1350   2.122   2.931   3.121 -1.0429 -1.0020  0.8218
  319WAT     H2 1351   2.005   3.023   3.095  1.8386  1.9498 -2.8547
  319WAT    EPW 1352   2.084   3.009   3.128  0.3942 -0.2132  0.1932
  320WAT      O 1353   2.120   3.724   2.890  0.2849 -0.0626  0.2471
  320WAT     H1 1354   2.140   3.815   2.867  0.3115  0.2485  1.4252
  320WAT     H2 1355   2.091   3.684   2.808  0.0451  1.0677 -0.2362
  320WAT    EPW 1356   2.119   3.730   2.876  0.2568  0.1275  0.3387
  321WAT      O 1357   0.971   2.927   0.046 -0.0470 -0.1841  0.7108
  321WAT     H1 1358   1.001   2.877  -0.029 -0.8045 -0.8505  0.8385
  321WAT     H2 1359   0.914   2.995   0.009 -1.1632 -1.0795  0.7350
  321WAT    EPW 1360   0.967   2.930   0.032 -0.2942 -0.3901  0.7308
  322WAT      O 1361   0.587   4.297   0.299  0.4185  0.2066 -0.0771
  322WAT     H1 1362   0.578   4.299   0.204 -0.5701 -3.7302 -0.2147
  322WAT     H2 1363   0.682   4.302   0.314  0.5545  1.5150 -1.1502
  322WAT    EPW 1364   0.599   4.298   0.289  0.3061 -0.1401 -0.2368
  323WAT      O 1365   2.418   3.384   3.378  0.1824 -0.1936  0.0847
  323WAT     H1 1366   2.385   3.425   3.458 -1.6054 -0.6065 -0.3902
  323WAT     H2 1367   2.396   3.291   3.389 -1.1283 -0.0867 -1.3383
  323WAT    EPW 1368   2.411   3.377   3.390 -0.2263 -0.2339 -0.1656
  324WAT      O 1369   0.053   1.359   1.285  0.4477 -0.4668  0.0395
  324WAT     H1 1370   0.031   1.369   1.192  1.4363  0.6556 -0.0934
  324WAT     H2 1371   0.126   1.298   1.286  0.8879  0.0521  0.0100
  324WAT    EPW 1372   0.060   1.352   1.273  0.6362 -0.2503  0.0181
  325WAT      O 1373   2.198   0.831   3.676  0.9391 -0.0384 -0.1022
  325WAT     H1 1374   2.279   0.855   3.630  1.9949 -2.1811  0.4938
  325WAT     H2 1375   2.207   0.871   3.763  0.0050  2.0724 -0.9137
  325WAT    EPW 1376   2.210   0.840   3.681  0.9552 -0.0426 -0.1306
  326WAT      O 1377   0.458   0.497   1.221 -0.1594 -0.2436  0.0318
  326WAT     H1 1378   0.470   0.535   1.307 -0.1791  0.1850 -0.1530
  326WAT     H2 1379   0.506   0.555   1.162  0.1628 -0.7366 -0.1986
  326WAT    EPW 1380   0.466   0.510   1.224 -0.1195 -0.2521 -0.0230
  327WAT      O 1381   0.346   0.239   1.571  0.2645  0.0575  0.2367
  327WAT     H1 1382   0.432   0.212   1.605  0.9077 -0.4320 -1.6594
  327WAT     H2 1383   0.361   0.253   1.477 -1.9729 -1.0791 -0.3403
  327WAT    EPW 1384   0.359   0.238   1.563  0.0543 -0.1570 -0.0895
  328WAT      O 1385   1.449   1.752   0.735  0.0392  0.7109 -0.1983
  328WAT     H1 1386   1.460   1.689   0.663  0.0385  0.1604  0.2730
  328WAT     H2 1387   1.515   1.725   0.799  0.9080  1.9846 -0.5230
  328WAT    EPW 1388   1.459   1.740   0.734  0.1537  0.8063 -0.1789
  329WAT      O 1389   1.877   2.316   2.874 -0.3490  0.2141 -0.2675
  329WAT     H1 1390   1.844   2.288   2.959 -0.8617 -0.9291 -0.8284
  329WAT     H2 1391   1.836   2.401   2.859 -1.2933 -0.1785  0.0458
  329WAT    EPW 1392   1.867   2.324   2.883 -0.5411  0.0116 -0.3002
  330WAT      O 1393   1.484   3.090   1.142 -0.4064  0.0359  0.0309
  330WAT     H1 1394   1.565   3.097   1.194 -0.3574 -0.8873  0.0934
  330WAT     H2 1395   1.510   3.038   1.066 -1.0526 -0.6808  0.2907
  330WAT    EPW 1396   1.498   3.084   1.139 -0.4852 -0.1804  0.0734
  331WAT      O 1397   2.254   3.401   2.066  0.5880 -0.0237 -0.4733
  331WAT     H1 1398   2.240   3.450   1.985 -1.1008 -1.4967 -1.1218
  331WAT     H2 1399   2.312   3.329   2.041 -1.2473 -1.4385 -0.8065
  331WAT    EPW 1400   2.260   3.398   2.052  0.1232 -0.4046 -0.6027
  332WAT      O 1401   2.475   0.702   1.986  0.2034 -0.3080  0.0878
  332WAT     H1 1402   2.561   0.719   2.025 -0.2306  0.9171  0.5602
  332WAT     H2 1403   2.490   0.713   1.892  0.4396  0.5235  0.2124
  332WAT    EPW 1404   2.488   0.706   1.979  0.1773 -0.0368  0.1665
  333WAT      O 1405   0.886   2.600   1.667  0.6084 -0.2553 -0.2511
  333WAT     H1 1406   0.819   2.618   1.602 -2.2602 -1.8056  2.0102
  333WAT     H2 1407   0.906   2.685   1.705 -0.8893  0.1631 -0.3233
  333WAT    EPW 1408   0.880   2.613   1.664  0.0325 -0.4046  0.0377
  334WAT      O 1409   1.464   3.948   1.922 -0.3508 -0.2447 -0.1744
  334WAT     H1 1410   1.413   3.896   1.859 -1.7062  2.1040 -1.1619
  334WAT     H2 1411   1.422   3.930   2.006 -0.9722 -0.5635 -0.5370
  334WAT    EPW 1412   1.451   3.939   1.924 -0.6115  0.0231 -0.3525
  335WAT      O 1413   2.835   3.203   2.299 -0.2270  0.6648 -0.3566
  335WAT     H1 1414   2.804   3.117   2.269  0.1052 -0.2590  1.7269
  335WAT     H2 1415   2.761   3.239   2.348  0.3041  0.6208  0.5071
  335WAT    EPW 1416   2.821   3.196   2.302 -0.1132  0.5372  0.0321
  336WAT      O 1417   0.679   2.079   0.867 -0.6445 -0.2113  0.1999
  336WAT     H1 1418   0.695   2.140   0.938  0.9638 -0.5742  0.1749
  336WAT     H2 1419   0.584   2.065   0.869 -0.9346  1.5904  0.7458
  336WAT    EPW 1420   0.669   2.085   0.876 -0.4707 -0.0215  0.2686
  337WAT      O 1421   1.839   0.528   3.531 -0.1799 -0.7867  0.6079
  337WAT     H1 1422   1.865   0.506   3.441  0.9694 -0.2287  0.7815
  337WAT     H2 1423   1.751   0.491   3.540 -1.4037  1.2919 -1.5751
  337WAT    EPW 1424   1.831   0.520   3.520 -0.1898 -0.4389  0.3429
  338WAT      O 1425   3.194   3.159   3.029  0.5075  0.3826  0.6295
  338WAT     H1 1426   3.290   3.157   3.023  0.7069  2.6191  1.8137
  338WAT     H2 1427   3.175   3.133   3.119 -0.0179 -0.2047  0.3532
  338WAT    EPW 1428   3.205   3.155   3.040  0.4645  0.6002  0.7492
  339WAT      O 1429   3.381   0.227   3.457 -0.2010  0.5533  0.0084
  339WAT     H1 1430   3.392   0.316   3.422  0.8040 -0.6488 -3.0362
  339WAT     H2 1431   3.468   0.205   3.491  0.2068 -0.0664 -1.3867
  339WAT    EPW 1432   3.394   0.236   3.457 -0.0146  0.3130 -0.5772
  340WAT      O 1433   3.708   1.324   2.667 -0.0468 -0.1287  0.4918
  340WAT     H1 1434   3.654   1.390   2.709  0.5645 -0.4403  1.8159
  340WAT     H2 1435   3.798   1.351   2.685  0.2223 -1.7322  1.8003
  340WAT    EPW 1436   3.713   1.336   2.675  0.0694 -0.3813  0.8390
  341WAT      O 1437   2.469   1.270   2.363  0.5533 -0.2328  0.1815
  341WAT     H1 1438   2.553   1.283   2.407  0.8948 -0.4830 -0.3834
  341WAT     H2 1439   2.415   1.342   2.393 -0.0560 -1.6759  2.9371
  341WAT    EPW 1440   2.473   1.281   2.373  0.5180 -0.4561  0.4705
  342WAT      O 1441   0.599   0.686   2.599  0.2321  0.1658  1.0851
  342WAT     H1 1442   0.579   0.627   2.673 -0.7186 -0.4321  0.3814
  342WAT     H2 1443   0.565   0.640   2.523  2.8272 -0.0974 -0.0263
  342WAT    EPW 1444   0.592   0.672   2.599  0.4490  0.0522  0.8457
  343WAT      O 1445   1.820   0.509   1.572  0.0040  0.6088 -0.4327
  343WAT     H1 1446   1.813   0.596   1.533  0.8505 -0.3943 -3.0404
  343WAT     H2 1447   1.734   0.469   1.557  0.0363  0.5424 -0.4428
  343WAT    EPW 1448   1.808   0.515   1.565  0.1199  0.4677 -0.7780
  344WAT      O 1449   2.530   3.509   2.230 -0.0279  0.0533 -0.2078
  344WAT     H1 1450   2.466   3.446   2.198 -0.4251  0.0101  0.6300
  344WAT     H2 1451   2.525   3.582   2.168 -1.3691  0.3331  0.1889
  344WAT    EPW 1452   2.521   3.511   2.218 -0.2572  0.0845 -0.0450
  345WAT      O 1453   2.485   2.413   1.615 -0.4674  0.1403 -0.5405
  345WAT     H1 1454   2.425   2.480   1.647 -1.2611 -0.2265 -1.2295
  345WAT     H2 1455   2.480   2.342   1.679  0.0133  0.5283 -0.0625
  345WAT    EPW 1456   2.477   2.413   1.628 -0.5087  0.1431 -0.5683
  346WAT      O 1457   0.486   3.953   2.532  0.3931  0.2236 -0.2707
  346WAT     H1 1458   0.413   3.926   2.477  1.0729 -1.2779 -0.4846
  346WAT     H2 1459   0.558   3.967   2.471  1.0885 -1.2364  0.1824
  346WAT    EPW 1460   0.486   3.951   2.517  0.5745 -0.1670 -0.2391
  347WAT      O 1461   1.548   1.930   1.293 -0.5182  0.0809  0.0679
  347WAT     H1 1462   1.587   1.901   1.211 -0.8887 -0.6784  0.1539
  347WAT     H2 1463   1.614   1.911   1.360  0.1643  1.5379 -0.1413
  347WAT    EPW 1464   1.562   1.924   1.291 -0.4771  0.1729  0.0516
  348WAT      O 1465   0.790   1.746   3.631  0.2119  0.1966  0.3546
  348WAT     H1 1466   0.836   1.728   3.713  2.5193  0.7494 -0.7431
  348WAT     H2 1467   0.818   1.834   3.607 -0.7712  0.2073 -0.8067
  348WAT    EPW 1468   0.800   1.755   3.639  0.3865  0.2709  0.0567
  349WAT      O 1469   3.565   0.266   0.872 -0.2705  0.6533 -0.0613
  349WAT     H1 1470   3.525   0.227   0.950 -0.9947 -1.3743 -1.3680
  349WAT     H2 1471   3.624   0.332   0.907 -0.1937 -0.5045  2.2495
  349WAT    EPW 1472   3.568   0.269   0.887 -0.3559  0.2331  0.0711
  350WAT      O 1473   0.373   3.499   2.745 -0.4210  0.0474 -0.2006
  350WAT     H1 1474   0.343   3.558   2.676 -0.0855  0.9652  0.4313
  350WAT     H2 1475   0.421   3.555   2.806 -0.2786 -0.8409  0.5210
  350WAT    EPW 1476   0.375   3.514   2.744 -0.3580  0.0513 -0.0221
  351WAT      O 1477   0.825   3.758   2.113 -0.6227  0.8762 -0.0129
  351WAT     H1 1478   0.895   3.813   2.148 -1.0535  1.2853  0.2073
  351WAT     H2 1479   0.810   3.791   2.025  1.0320 -0.6783 -0.9536
  351WAT    EPW 1480   0.832   3.770   2.106 -0.4613  0.7251 -0.1080
  352WAT      O 1481   1.734   0.186   1.349 -0.6768  0.1142  0.1577
  352WAT     H1 1482   1.747   0.172   1.442 -0.2971  1.3594  0.3137
  352WAT     H2 1483   1.640   0.206   1.341 -0.8529 -0.6734  0.1648
  352WAT    EPW 1484   1.723   0.187   1.360 -0.6499  0.1746  0.1792
  353WAT      O 1485   2.299   0.777   2.319  0.0162  0.8124 -0.1721
  353WAT     H1 1486   2.374   0.717   2.317 -1.1296 -0.6875 -2.3019
  353WAT     H2 1487   2.324   0.844   2.382  3.1334  0.3715 -0.7567
  353WAT    EPW 1488   2.312   0.778   2.327  0.2762  0.5564 -0.5301
  354WAT      O 1489   2.343   0.233   3.384  0.2222 -0.1365 -0.4281
  354WAT     H1 1490   2.268   0.174   3.377  0.3041 -0.2684 -0.1900
  354WAT     H2 1491   2.349   0.254   3.477  2.5239 -2.8196  0.1665
  354WAT    EPW 1492   2.334   0.228   3.395  0.5366 -0.5078 -0.3183
  355WAT      O 1493   1.323   0.485   0.157  0.0680 -0.6034 -0.0973
  355WAT     H1 1494   1.321   0.389   0.157 -0.9070 -0.6371 -2.0387
  355WAT     H2 1495   1.239   0.511   0.193 -0.0804 -0.5089 -0.5044
  355WAT    EPW 1496   1.312   0.476   0.162 -0.0802 -0.5954 -0.4070
  356WAT      O 1497   1.305   0.423   1.563  0.2652  0.1650  0.3271
  356WAT     H1 1498   1.327   0.516   1.557 -1.0880  0.6903  2.5675
  356WAT     H2 1499   1.350   0.392   1.642  0.1478 -0.9208 -0.0097
  356WAT    EPW 1500   1.314   0.431   1.573  0.0713  0.0911  0.5782
  357WAT      O 1501   0.408   1.046   0.357  0.0864  0.4387  0.5794
  357WAT     H1 1502   0.497   1.083   0.360  0.0195  0.5369  1.9140
  357WAT     H2 1503   0.351   1.123   0.351  0.0915  0.3585 -0.7159
  357WAT    EPW 1504   0.412   1.061   0.357  0.0783  0.4411  0.5846
  358WAT      O 1505   3.700   1.060   0.576  0.4449  0.5630 -0.2208
  358WAT     H1 1506   3.701   0.985   0.516 -2.6376 -0.0449  0.3188
  358WAT     H2 1507   3.677   1.134   0.521  1.4363  0.7726 -0.3849
  358WAT    EPW 1508   3.697   1.060   0.561  0.1691  0.5105 -0.1713
  359WAT      O 1509   3.068   4.353   3.568  0.1708 -0.0571  0.1732
  359WAT     H1 1510   3.029   4.295   3.502  1.4670 -1.3906  0.5171
  359WAT     H2 1511   3.058   4.305   3.650  2.2289 -0.3690  0.3064
  359WAT    EPW 1512   3.062   4.339   3.570  0.6132 -0.2741  0.2361
  360WAT      O 1513   0.982   1.062   2.865 -0.1283  0.5414  0.1913
  360WAT     H1 1514   0.895   1.052   2.905 -0.1895 -0.5637 -0.1697
  360WAT     H2 1515   1.013   1.147   2.895 -0.4724  0.0726  1.9914
  360WAT    EPW 1516   0.974   1.072   2.874 -0.1818  0.3338  0.3811
  361WAT      O 1517   2.678   0.281   0.885 -0.0527  0.0862  0.6311
  361WAT     H1 1518   2.766   0.249   0.865 -0.2941  0.3513 -1.0228
  361WAT     H2 1519   2.690   0.341   0.959  1.0435 -0.4012  0.8657
  361WAT    EPW 1520   2.691   0.285   0.892  0.0600  0.0569  0.4439
  362WAT      O 1521   1.627   3.103   1.470 -0.2020  0.3415  0.2221
  362WAT     H1 1522   1.559   3.037   1.474 -0.6822  0.8325  0.2403
  362WAT     H2 1523   1.580   3.186   1.466  0.3865  0.6609 -0.2689
  362WAT    EPW 1524   1.612   3.105   1.470 -0.1877  0.4484  0.1597
  363WAT      O 1525   1.555   1.611   1.846  0.3534  0.0618  0.4151
  363WAT     H1 1526   1.546   1.555   1.769  2.0999  0.4010 -0.0660
  363WAT     H2 1527   1.642   1.649   1.838 -0.2683  1.7872  1.4520
  363WAT    EPW 1528   1.565   1.608   1.835  0.5017  0.3341  0.4884
  364WAT      O 1529   1.300   4.349   3.538  0.0561 -0.5544  0.2051
  364WAT     H1 1530   1.391   4.371   3.558 -0.2600  1.2297 -0.1322
  364WAT     H2 1531   1.260   4.433   3.516 -0.9815 -1.6500 -2.4631
  364WAT    EPW 1532   1.307   4.363   3.537 -0.1224 -0.4636 -0.1913
  365WAT      O 1533   0.223   1.650   0.828 -0.0062 -0.2804 -0.0879
  365WAT     H1 1534   0.266   1.693   0.902  0.2686 -1.3171  0.3711
  365WAT     H2 1535   0.157   1.712   0.799 -0.4066 -0.0265  1.3051
  365WAT    EPW 1536   0.220   1.664   0.834 -0.0228 -0.3837  0.1564
  366WAT      O 1537   3.465   1.125   3.570 -0.2392 -0.1993  0.2028
  366WAT     H1 1538   3.458   1.145   3.477  1.6121 -1.4636 -0.2774
  366WAT     H2 1539   3.445   1.207   3.614  1.4531  1.1816 -1.4205
  366WAT    EPW 1540   3.461   1.138   3.563  0.2282 -0.1839 -0.0747
  367WAT      O 1541   3.179   3.380   1.379 -0.2703  0.2768  0.2627
  367WAT     H1 1542   3.156   3.369   1.471 -2.3873  0.3511 -0.2193
  367WAT     H2 1543   3.180   3.291   1.343  0.6537  0.2382  0.3426
  367WAT    EPW 1544   3.176   3.367   1.387 -0.4277  0.2815  0.2096
  368WAT      O 1545   2.093   0.693   2.575  0.5180  0.0709 -0.1532
  368WAT     H1 1546   2.036   0.721   2.647 -0.9503 -1.0424 -0.8220
  368WAT     H2 1547   2.032   0.661   2.508  1.8599 -4.8730  0.5635
  368WAT    EPW 1548   2.077   0.692   2.576  0.5013 -0.7280 -0.1469
  369WAT      O 1549   2.379   2.449   2.191 -0.6345 -0.0736  0.0594
  369WAT     H1 1550   2.461   2.489   2.162 -0.5923 -0.3367 -0.1809
  369WAT     H2 1551   2.359   2.494   2.274 -1.3826  1.5355 -0.9411
  369WAT    EPW 1552   2.387   2.460   2.198 -0.7276  0.1039 -0.1042
  370WAT      O 1553   2.057   0.705   0.183  0.0944  0.3760 -0.1427
  370WAT     H1 1554   1.980   0.659   0.214 -0.7270  0.8417 -1.3969
  370WAT     H2 1555   2.095   0.745   0.261 -0.2814 -0.7875  0.6584
  370WAT    EPW 1556   2.052   0.704   0.197 -0.0635  0.2840 -0.2025
  371WAT      O 1557   0.135   0.030   0.979 -0.4451  0.2677 -0.0705
  371WAT     H1 1558   0.057   0.085   0.967 -0.5833  0.3318  1.0255
  371WAT     H2 1559   0.100  -0.059   0.984 -0.3716  0.2269 -0.2657
  371WAT    EPW 1560   0.120   0.026   0.978 -0.4536  0.2708  0.0483
  372WAT      O 1561   3.016   3.813   0.112 -0.0690  0.0976  0.6758
  372WAT     H1 1562   3.075   3.873   0.067 -0.3830  0.0884  0.2393
  372WAT     H2 1563   2.959   3.870   0.163 -1.9745  0.4242 -1.6066
  372WAT    EPW 1564   3.016   3.828   0.113 -0.3617  0.1394  0.3172
  373WAT      O 1565   0.201   1.864   1.383  0.8970  0.3860  0.5303
  373WAT     H1 1566   0.150   1.792   1.345  2.0864  1.0048 -2.5533
  373WAT     H2 1567   0.135   1.924   1.418 -0.2323 -0.9091  0.7390
  373WAT    EPW 1568   0.185   1.862   1.383  0.9049  0.2968  0.1511
  374WAT      O 1569   0.875   2.148   3.361 -0.1486 -0.0454 -0.5427
  374WAT     H1 1570   0.896   2.235   3.394  0.4117 -0.4590  0.2290
  374WAT     H2 1571   0.960   2.106   3.349 -0.4384 -1.1163  0.8739
  374WAT    EPW 1572   0.889   2.154   3.364 -0.1129 -0.2412 -0.2541
  375WAT      O 1573   3.503   1.893   1.127 -0.5956  0.1947 -0.1191
  375WAT     H1 1574   3.537   1.803   1.135  1.9162  1.1487  1.3739
  375WAT     H2 1575   3.442   1.889   1.054 -0.7242 -2.7660  0.0053
  375WAT    EPW 1576   3.500   1.881   1.119 -0.2813 -0.0699  0.0942
  376WAT      O 1577   0.484   0.208   2.621 -0.6126 -0.3673 -0.1598
  376WAT     H1 1578   0.559   0.149   2.622 -0.4700 -0.2153 -0.8633
  376WAT     H2 1579   0.488   0.250   2.534  0.6085  2.3547  1.0726
  376WAT    EPW 1580   0.494   0.206   2.609 -0.4327  0.0117 -0.0900
  377WAT      O 1581   0.031   0.337   0.426  0.6876  0.5933 -0.5582
  377WAT     H1 1582  -0.007   0.294   0.502 -0.6589  2.0027 -0.3831
  377WAT     H2 1583   0.122   0.306   0.423 -0.3612 -2.8549 -0.9442
  377WAT    EPW 1584   0.038   0.327   0.435  0.3716  0.3244 -0.5860
  378WAT      O 1585   3.302   1.969   3.434  0.1261  0.6053  0.1706
  378WAT     H1 1586   3.310   1.936   3.344  2.1083 -1.6476  1.0714
  378WAT     H2 1587   3.216   1.938   3.463  0.2087 -0.1855 -0.3936
  378WAT    EPW 1588   3.291   1.961   3.426  0.3984  0.2039  0.2150
  379WAT      O 1589   2.455   0.869   3.499  0.0177 -0.4206 -0.5539
  379WAT     H1 1590   2.527   0.831   3.448 -0.1447 -0.0614 -1.0517
  379WAT     H2 1591   2.499   0.921   3.566  0.2587  1.7081 -2.2601
  379WAT    EPW 1592   2.471   0.871   3.501  0.0280 -0.0925 -0.8446
  380WAT      O 1593   0.294   2.672   1.392 -0.2854  0.2496 -0.5042
  380WAT     H1 1594   0.249   2.755   1.371  0.2327  0.5426 -0.4609
  380WAT     H2 1595   0.385   2.688   1.370  0.1965  0.4058  1.4908
  380WAT    EPW 1596   0.300   2.685   1.386 -0.1535  0.3089 -0.2354
  381WAT      O 1597   0.503   3.407   3.177  0.2979 -0.1664 -0.1048
  381WAT     H1 1598   0.579   3.444   3.133 -0.5216  1.3877 -0.3069
  381WAT     H2 1599   0.429   3.426   3.118 -0.2660 -1.6192  0.0878
  381WAT    EPW 1600   0.503   3.415   3.164  0.1155 -0.1530 -0.1060
  382WAT      O 1601   3.645   0.352   3.340  0.2135 -0.7966 -0.3644
  382WAT     H1 1602   3.676   0.310   3.421  0.2391 -1.0851 -0.5227
  382WAT     H2 1603   3.721   0.401   3.309 -0.1131  0.2138  0.3641
  382WAT    EPW 1604   3.659   0.353   3.347  0.1738 -0.7014 -0.2892
  383WAT      O 1605   2.925   2.845   1.239  0.2814  0.0291 -0.8729
  383WAT     H1 1606   2.936   2.786   1.313 -0.6097  0.1804 -0.6090
  383WAT     H2 1607   2.912   2.931   1.279  1.2713  0.3802 -1.2456
  383WAT    EPW 1608   2.925   2.849   1.254  0.2945  0.0953 -0.8872
  384WAT      O 1609   3.243   0.030   0.947 -0.4240 -0.0633  0.3971
  384WAT     H1 1610   3.270   0.121   0.951  2.2306 -0.7688 -0.0573
  384WAT     H2 1611   3.269   0.000   0.860 -1.9605 -1.0769  0.2426
  384WAT    EPW 1612   3.250   0.038   0.936 -0.2765 -0.2900  0.3168
  385WAT      O 1613   3.228   3.015   3.282 -0.1253 -0.0805  0.0169
  385WAT     H1 1614   3.213   3.008   3.376 -0.5120 -1.3590 -0.1182
  385WAT     H2 1615   3.267   2.931   3.257 -1.5160 -0.4118 -1.2116
  385WAT    EPW 1616   3.231   3.003   3.291 -0.3598 -0.2928 -0.1629
  386WAT      O 1617   3.704   1.470   0.163 -0.2265  0.2989 -0.0776
  386WAT     H1 1618   3.769   1.536   0.140 -0.7599  0.2506 -1.9146
  386WAT     H2 1619   3.631   1.519   0.199  0.1194  0.5187  0.3318
  386WAT    EPW 1620   3.703   1.485   0.165 -0.2513  0.3215 -0.2659
  387WAT      O 1621   3.392   2.928   1.026  0.0534  0.0383  0.1991
  387WAT     H1 1622   3.361   2.885   1.106  1.4985  1.0012  1.3264
  387WAT     H2 1623   3.461   2.987   1.056 -1.8931  3.3283 -1.1713
  387WAT    EPW 1624   3.397   2.930   1.041 -0.0127  0.5993  0.1670
  388WAT      O 1625   2.244   2.312   1.340 -0.2674  0.0498 -0.2498
  388WAT     H1 1626   2.337   2.299   1.322 -0.3084  0.0176 -0.4405
  388WAT     H2 1627   2.238   2.404   1.367  0.1145 -0.4634  1.7016
  388WAT    EPW 1628   2.255   2.323   1.341 -0.2224 -0.0221 -0.0176
  389WAT      O 1629   2.103   0.367   0.228  0.0577 -0.2979 -0.0661
  389WAT     H1 1630   2.063   0.293   0.273 -0.7264 -1.6700 -2.7987
  389WAT     H2 1631   2.032   0.430   0.217 -0.2638 -0.8043 -1.0101
  389WAT    EPW 1632   2.089   0.366   0.233 -0.0882 -0.5457 -0.5510
  390WAT      O 1633   3.621   1.855   3.485 -0.4254 -0.8970 -0.4015
  390WAT     H1 1634   3.610   1.908   3.406 -2.7111 -0.5794  0.0484
  390WAT     H2 1635   3.561   1.895   3.548 -0.9243 -2.9700  0.5141
  390WAT    EPW 1636   3.612   1.868   3.483 -0.7926 -1.1285 -0.2214
  391WAT      O 1637   1.804   2.613   1.744 -0.0837 -0.2453  0.4530
  391WAT     H1 1638   1.725   2.647   1.786 -1.6188 -2.4912 -0.4208
  391WAT     H2 1639   1.774   2.582   1.658  1.8640 -0.7054 -0.1055
  391WAT    EPW 1640   1.789   2.613   1.738 -0.0293 -0.6022  0.2641
  392WAT      O 1641   1.493   0.633   0.342  0.2249 -0.3329 -0.1766
  392WAT     H1 1642   1.459   0.581   0.415 -1.0115 -0.1103 -0.5772
  392WAT     H2 1643   1.454   0.594   0.264  0.5530  0.2073 -0.6193
  392WAT    EPW 1644   1.483   0.621   0.342  0.1051 -0.2323 -0.2878
  393WAT      O 1645   1.508   3.444   2.512 -0.2200  0.2281  0.0340
  393WAT     H1 1646   1.534   3.534   2.493 -0.8924  0.4146 -0.0402
  393WAT     H2 1647   1.534   3.430   2.603 -0.3726  0.5967  0.1353
  393WAT    EPW 1648   1.515   3.454   2.522 -0.3288  0.3013  0.0376
  394WAT      O 1649   0.238   0.645   0.208  0.6174 -0.4262  0.4989
  394WAT     H1 1650   0.234   0.552   0.185  0.2287  0.1131 -1.9197
  394WAT     H2 1651   0.164   0.684   0.162 -0.0689  0.9230  2.5874
  394WAT    EPW 1652   0.227   0.638   0.199  0.4756 -0.1771  0.4554
  395WAT      O 1653   0.702   3.768   0.747 -0.0787 -0.6413  0.0082
  395WAT     H1 1654   0.794   3.769   0.772 -0.0438 -0.9325 -0.1064
  395WAT     H2 1655   0.671   3.681   0.774 -0.3999 -0.4242  0.3439
  395WAT    EPW 1656   0.710   3.756   0.754 -0.1165 -0.6511  0.0373
  396WAT      O 1657   2.207   4.161   0.267  0.0659 -0.3500 -0.3109
  396WAT     H1 1658   2.127   4.117   0.238 -0.7453  0.8159  0.0884
  396WAT     H2 1659   2.184   4.201   0.351  0.3754  1.8659 -1.2188
  396WAT    EPW 1660   2.194   4.160   0.275 -0.0003  0.0960 -0.3780
  397WAT      O 1661   1.830   4.297   0.330 -0.2551 -0.5520  0.0225
  397WAT     H1 1662   1.758   4.355   0.355  0.1333  0.1887 -0.5646
  397WAT     H2 1663   1.847   4.245   0.409 -0.6014  0.1332  0.5595
  397WAT    EPW 1664   1.823   4.298   0.344 -0.2496 -0.3639  0.0159
  398WAT      O 1665   1.389   3.677   0.122  0.7570  0.4408 -0.1919
  398WAT     H1 1666   1.429   3.647   0.203  0.8773 -1.1790 -0.8107
  398WAT     H2 1667   1.445   3.749   0.092  2.4340 -0.8740 -0.3270
  398WAT    EPW 1668   1.401   3.683   0.128  0.9941  0.0537 -0.2913
  399WAT      O 1669   0.280   3.093   0.776 -0.4499  0.5814  0.2791
  399WAT     H1 1670   0.254   3.161   0.712 -1.4000 -0.2188 -0.2231
  399WAT     H2 1671   0.342   3.038   0.728 -1.5176 -0.2941 -0.1538
  399WAT    EPW 1672   0.284   3.095   0.761 -0.7160  0.3604  0.1557
  400WAT      O 1673   0.937   3.452   2.878 -0.1363 -0.1401  0.3647
  400WAT     H1 1674   0.848   3.481   2.897  0.1719  1.5549 -0.6058
  400WAT     H2 1675   0.936   3.433   2.784  0.6011  0.2410  0.2728
  400WAT    EPW 1676   0.925   3.453   2.868  0.0016  0.1338  0.2246
  401WAT      O 1677   2.568   1.216   2.028 -0.5159  0.1248  0.3275
  401WAT     H1 1678   2.558   1.230   1.933  0.8081  0.3919  0.2027
  401WAT     H2 1679   2.544   1.300   2.067  0.8999  0.6789  0.0632
  401WAT    EPW 1680   2.563   1.229   2.020 -0.1546  0.2331  0.2762
  402WAT      O 1681   1.828   3.054   2.474 -0.9674  0.1785 -0.5444
  402WAT     H1 1682   1.786   3.132   2.439  0.5251  2.5252  2.4744
  402WAT     H2 1683   1.920   3.077   2.481 -0.9744 -0.1748  4.0771
  402WAT    EPW 1684   1.835   3.067   2.470 -0.7715  0.4414  0.4633
  403WAT      O 1685   1.017   3.301   0.212 -0.6992  0.3166  0.3901
  403WAT     H1 1686   1.005   3.313   0.306  0.9281  2.6817  0.3995
  403WAT     H2 1687   1.074   3.225   0.204  0.0132  0.7280  1.4111
  403WAT    EPW 1688   1.023   3.293   0.223 -0.3906  0.6828  0.5260
  404WAT      O 1689   0.439   3.125   1.462  0.1116 -0.7606  0.4627
  404WAT     H1 1690   0.452   3.201   1.406 -2.4753 -0.9581 -0.5750
  404WAT     H2 1691   0.408   3.161   1.545 -3.4516 -0.5984 -0.7761
  404WAT    EPW 1692   0.436   3.139   1.465 -0.6996 -0.7653  0.1624
  405WAT      O 1693   2.159   4.055   3.320 -0.1063  0.0759  0.0001
  405WAT     H1 1694   2.197   4.104   3.394 -0.0800  0.0680 -0.0081
  405WAT     H2 1695   2.229   4.055   3.254 -0.3751  0.6825 -0.2977
  405WAT    EPW 1696   2.173   4.062   3.321 -0.1383  0.1549 -0.0402
  406WAT      O 1697   3.703   0.533   2.327 -0.0323 -0.7047 -0.2250
  406WAT     H1 1698   3.792   0.569   2.327 -0.4051  0.2560 -0.8347
  406WAT     H2 1699   3.714   0.441   2.351  1.0967 -0.5339 -0.0341
  406WAT    EPW 1700   3.716   0.526   2.330  0.0674 -0.5554 -0.2802
  407WAT      O 1701   0.731   0.769   1.527  0.5001  0.3872  0.3712
  407WAT     H1 1702   0.796   0.717   1.574 -0.1125  0.0290  0.8401
  407WAT     H2 1703   0.722   0.724   1.443  1.5822  1.0181 -0.1000
  407WAT    EPW 1704   0.738   0.756   1.522  0.5620  0.4232  0.3709
  408WAT      O 1705   2.201   2.429   2.434 -0.1687  0.0935 -0.0154
  408WAT     H1 1706   2.292   2.420   2.460 -0.5401 -0.7198  1.1012
  408WAT     H2 1707   2.169   2.339   2.427 -0.6211  0.3355 -1.4364
  408WAT    EPW 1708   2.209   2.416   2.436 -0.2774  0.0182 -0.0556
  409WAT      O 1709   0.436   1.455   0.897  0.4520  0.4104  0.0537
  409WAT     H1 1710   0.417   1.373   0.851  0.4073  0.5785 -0.2296
  409WAT     H2 1711   0.386   1.521   0.849  0.7260  0.6508  0.0986
  409WAT    EPW 1712   0.427   1.453   0.884  0.4822  0.4643  0.0222
  410WAT      O 1713   3.211   3.138   1.195 -0.1167  0.6412 -0.1723
  410WAT     H1 1714   3.115   3.130   1.195 -0.0544 -0.4161 -1.5778
  410WAT     H2 1715   3.233   3.169   1.108  0.8560  0.3487 -0.0450
  410WAT    EPW 1716   3.201   3.141   1.184  0.0198  0.4632 -0.3409
  411WAT      O 1717   3.402   4.320   3.588 -0.1448  0.0162 -0.2367
  411WAT     H1 1718   3.412   4.238   3.539  0.4260  0.5138 -0.9744
  411WAT     H2 1719   3.333   4.367   3.542 -1.0854 -0.4213  0.7123
  411WAT    EPW 1720   3.395   4.315   3.575 -0.1936  0.0241 -0.2089
  412WAT      O 1721   2.844   1.271   3.751 -0.0102  0.1892 -0.0395
  412WAT     H1 1722   2.814   1.205   3.688  2.0476 -0.8427 -0.0214
  412WAT     H2 1723   2.870   1.345   3.696  1.6264 -0.6489 -0.4630
  412WAT    EPW 1724   2.844   1.272   3.735  0.4770 -0.0574 -0.0929
  413WAT      O 1725   0.803   2.635   0.680  0.0574  0.5520 -0.1040
  413WAT     H1 1726   0.749   2.567   0.721  0.9546 -0.4178 -0.4943
  413WAT     H2 1727   0.884   2.635   0.731  0.5935  0.3824 -0.9365
  413WAT    EPW 1728   0.807   2.626   0.693  0.2464  0.4017 -0.2653
  414WAT      O 1729   1.444   0.313   2.525  0.1747  0.0901 -0.0963
  414WAT     H1 1730   1.382   0.323   2.453 -0.3215 -0.8557  0.1886
  414WAT     H2 1731   1.458   0.219   2.532  2.2546  0.3048 -0.6566
  414WAT    EPW 1732   1.438   0.302   2.516  0.3836 -0.0063 -0.1326
  415WAT      O 1733   3.424   1.731   1.669 -0.0950 -0.1454 -0.5985
  415WAT     H1 1734   3.406   1.740   1.576  0.9752  2.9538 -0.6399
  415WAT     H2 1735   3.405   1.640   1.689 -0.9753 -0.7477 -3.6877
  415WAT    EPW 1736   3.419   1.720   1.659 -0.0700  0.1839 -1.0114
  416WAT      O 1737   3.015   0.224   0.725 -0.0120 -0.5042  0.3949
  416WAT     H1 1738   3.100   0.215   0.682 -0.6867 -2.8059 -0.6113
  416WAT     H2 1739   3.024   0.177   0.808 -0.1385 -0.2769  0.5391
  416WAT    EPW 1740   3.027   0.216   0.730 -0.1177 -0.7778  0.2812
  417WAT      O 1741   2.153   1.642   0.535 -0.0047 -0.4384  0.0193
  417WAT     H1 1742   2.153   1.720   0.591  0.5281 -0.5990  0.2600
  417WAT     H2 1743   2.240   1.643   0.493 -0.4747 -0.2066 -0.9731
  417WAT    EPW 1744   2.165   1.652   0.537  0.0036 -0.4290 -0.0799
  418WAT      O 1745   1.575   1.115   2.812  0.2544  0.2497  0.5244
  418WAT     H1 1746   1.608   1.198   2.846  1.3552  1.3285 -2.8285
  418WAT     H2 1747   1.504   1.139   2.753 -0.5070 -1.3749  0.7042
  418WAT    EPW 1748   1.570   1.129   2.809  0.2991  0.1777  0.1059
  419WAT      O 1749   3.211   1.791   2.035  0.0581  0.0910  0.2149
  419WAT     H1 1750   3.145   1.858   2.056  0.8656  1.4216 -1.2515
  419WAT     H2 1751   3.283   1.841   1.996  3.4324 -0.7933  4.5741
  419WAT    EPW 1752   3.211   1.807   2.032  0.6096  0.1498  0.5964
  420WAT      O 1753   2.690   4.098   1.691  0.0563  0.5853 -0.4285
  420WAT     H1 1754   2.686   4.110   1.596 -0.4119  0.8693 -0.3766
  420WAT     H2 1755   2.770   4.141   1.718  0.8426 -0.5685 -0.8473
  420WAT    EPW 1756   2.700   4.105   1.682  0.0983  0.4706 -0.4769
  421WAT      O 1757   2.508   2.479   1.057  0.2864  0.0945 -0.2394
  421WAT     H1 1758   2.413   2.465   1.064  0.3285  0.3186  0.9974
  421WAT     H2 1759   2.516   2.566   1.020  0.0057  0.2835  0.1381
  421WAT    EPW 1760   2.496   2.488   1.053  0.2549  0.1490 -0.0265
  422WAT      O 1761   0.299   3.761   0.742 -0.0552 -0.1943  0.2226
  422WAT     H1 1762   0.345   3.807   0.812  0.0838 -0.8185  0.5576
  422WAT     H2 1763   0.356   3.686   0.722  0.4628  0.5941 -1.3555
  422WAT    EPW 1764   0.313   3.757   0.749  0.0314 -0.1726  0.0587
  423WAT      O 1765   0.197   0.237   2.799 -0.2211 -0.4118 -0.5379
  423WAT     H1 1766   0.208   0.311   2.739 -1.0022 -0.3706 -0.6461
  423WAT     H2 1767   0.186   0.162   2.742 -0.2040 -0.4894 -0.4389
  423WAT    EPW 1768   0.197   0.237   2.784 -0.3219 -0.4166 -0.5391
  424WAT      O 1769   2.520   1.352   0.500 -0.2455  0.3499 -0.4272
  424WAT     H1 1770   2.606   1.337   0.460  1.0367  1.5306  1.7117
  424WAT     H2 1771   2.515   1.447   0.512 -0.3474  0.0843  2.4470
  424WAT    EPW 1772   2.530   1.363   0.496 -0.0898  0.4706  0.2340
  425WAT      O 1773   2.950   3.149   1.280  0.4582  0.5519  0.1118
  425WAT     H1 1774   2.931   3.223   1.222 -0.2141  0.3015 -0.0026
  425WAT     H2 1775   2.922   3.178   1.367  2.6908  1.4224  0.5928
  425WAT    EPW 1776   2.944   3.162   1.284  0.6640  0.6337  0.1602
  426WAT      O 1777   3.408   3.288   0.369  0.6468 -0.2580  0.0884
  426WAT     H1 1778   3.326   3.308   0.324  1.4905  1.4135 -0.7751
  426WAT     H2 1779   3.381   3.231   0.442 -1.3048  0.4044 -0.0425
  426WAT    EPW 1780   3.394   3.283   0.373  0.5007  0.0498 -0.0428
  427WAT      O 1781   3.417   3.502   2.268 -0.0445  0.6164 -0.1996
  427WAT     H1 1782   3.322   3.512   2.258 -0.2845  0.2736  1.5290
  427WAT     H2 1783   3.435   3.527   2.358  1.2118 -1.3639  0.1684
  427WAT    EPW 1784   3.407   3.507   2.279  0.0895  0.3100  0.0770
  428WAT      O 1785   0.420   3.248   1.786  0.1471 -0.1389 -0.1158
  428WAT     H1 1786   0.331   3.283   1.777 -0.1524 -1.1609 -1.5057
  428WAT     H2 1787   0.472   3.300   1.725  0.7923  1.2511  1.5523
  428WAT    EPW 1788   0.415   3.260   1.777  0.1927 -0.0904 -0.0791
  429WAT      O 1789   3.699   0.636   2.585 -0.2227 -0.0793  0.3270
  429WAT     H1 1790   3.666   0.586   2.511 -0.5687  0.6546 -0.0261
  429WAT     H2 1791   3.653   0.720   2.579  1.3108  0.7699  0.1509
  429WAT    EPW 1792   3.689   0.640   2.575 -0.0661  0.1295  0.2572
  430WAT      O 1793   0.470   0.493   0.703 -0.1708 -0.2859 -0.4717
  430WAT     H1 1794   0.464   0.586   0.685  0.4595 -0.2495 -0.4978
  430WAT     H2 1795   0.502   0.454   0.622 -1.5392 -0.6828 -0.8524
  430WAT    EPW 1796   0.473   0.500   0.690 -0.2682 -0.3334 -0.5253
  431WAT      O 1797   2.211   1.019   0.086  0.3044  0.0904 -0.4010
  431WAT     H1 1798   2.217   0.954   0.155  2.4500 -0.3620 -0.9397
  431WAT     H2 1799   2.130   1.067   0.105 -0.5439 -1.7249  0.8621
  431WAT    EPW 1800   2.201   1.017   0.098  0.4755 -0.2087 -0.3055
  432WAT      O 1801   0.224   0.945   1.835  0.8820  0.0963 -0.4068
  432WAT     H1 1802   0.167   0.991   1.774 -0.3145  0.1652  0.7139
  432WAT     H2 1803   0.180   0.862   1.851  1.0991  0.1366  0.4610
  432WAT    EPW 1804   0.211   0.940   1.829  0.7528  0.1107 -0.1445
  433WAT      O 1805   2.367   0.182   0.280 -0.3334 -0.2335 -0.4117
  433WAT     H1 1806   2.334   0.109   0.227 -0.2376 -0.1977 -0.5200
  433WAT     H2 1807   2.315   0.257   0.251 -0.9575 -0.4028  0.2245
  433WAT    EPW 1808   2.356   0.182   0.269 -0.4031 -0.2511 -0.3420
  434WAT      O 1809   1.485   2.719   0.859 -0.4618 -0.6034 -0.2438
  434WAT     H1 1810   1.551   2.789   0.867 -1.8860  0.8339 -0.5883
  434WAT     H2 1811   1.444   2.715   0.945 -0.7993 -0.5637 -0.3996
  434WAT    EPW 1812   1.488   2.728   0.871 -0.6942 -0.4086 -0.3098
  435WAT      O 1813   2.271   3.443   2.992  0.2526 -0.3185  0.4417
  435WAT     H1 1814   2.341   3.478   2.937  0.3382  0.7295  1.1780
  435WAT     H2 1815   2.299   3.353   3.011  0.6947 -0.3738 -0.4211
  435WAT    EPW 1816   2.284   3.436   2.987  0.3222 -0.1876  0.4250
  436WAT      O 1817   2.196   1.786   2.012 -0.6128 -0.2626 -0.2256
  436WAT     H1 1818   2.118   1.840   2.020 -0.5100 -0.1619  0.1515
  436WAT     H2 1819   2.233   1.785   2.101  0.3777  0.5559 -0.5978
  436WAT    EPW 1820   2.191   1.793   2.025 -0.4686 -0.1414 -0.2249
  437WAT      O 1821   0.160   0.889   0.787 -0.1479 -0.1144 -0.2174
  437WAT     H1 1822   0.087   0.827   0.793 -0.2386 -0.0120 -0.2541
  437WAT     H2 1823   0.131   0.953   0.722 -0.1651  0.1150  0.0148
  437WAT    EPW 1824   0.147   0.889   0.779 -0.1621 -0.0706 -0.1916
  438WAT      O 1825   3.686   0.974   3.489 -0.5224 -0.3070  0.2571
  438WAT     H1 1826   3.601   1.008   3.515 -0.5947 -0.4773  0.2425
  438WAT     H2 1827   3.668   0.921   3.411 -0.5634 -1.2533  0.9009
  438WAT    EPW 1828   3.672   0.971   3.482 -0.5373 -0.4542  0.3401
  439WAT      O 1829   1.930   3.743   0.403 -0.1353 -0.4362 -0.2584
  439WAT     H1 1830   1.980   3.800   0.462  0.3721  0.0099 -1.0969
  439WAT     H2 1831   1.944   3.781   0.316  0.0004 -1.6859 -0.8045
  439WAT    EPW 1832   1.939   3.756   0.399 -0.0505 -0.5422 -0.4410
  440WAT      O 1833   2.839   2.162   2.388 -0.0555 -0.4361 -0.1306
  440WAT     H1 1834   2.910   2.226   2.386 -0.9316  0.6516  1.4877
  440WAT     H2 1835   2.871   2.092   2.445 -0.0647 -0.2445  0.1057
  440WAT    EPW 1836   2.853   2.161   2.395 -0.1723 -0.2673  0.1140
  441WAT      O 1837   0.837   3.625   2.412  0.2285  0.5834 -0.2196
  441WAT     H1 1838   0.833   3.649   2.319 -0.3412 -0.5146 -0.4985
  441WAT     H2 1839   0.865   3.534   2.411 -2.1933 -0.2619  0.5244
  441WAT    EPW 1840   0.840   3.616   2.399 -0.1660  0.3271 -0.1582
  442WAT      O 1841   1.188   2.875   0.930 -0.6647  0.1318  0.0880
  442WAT     H1 1842   1.251   2.858   1.000  0.1264 -0.1663 -0.6766
  442WAT     H2 1843   1.115   2.917   0.974  0.1734  0.7265  0.9657
  442WAT    EPW 1844   1.187   2.878   0.945 -0.4498  0.1709  0.1029
  443WAT      O 1845   0.597   4.300   1.963 -0.0346  0.0003 -0.6439
  443WAT     H1 1846   0.657   4.368   1.995  0.2989 -0.2744 -0.6813
  443WAT     H2 1847   0.523   4.303   2.024 -0.1231  0.5368 -0.7654
  443WAT    EPW 1848   0.595   4.310   1.975 -0.0023  0.0348 -0.6649
  444WAT      O 1849   0.671   1.402   1.267  0.6256 -0.1427 -0.2526
  444WAT     H1 1850   0.608   1.398   1.340 -0.5936 -1.0627 -1.3053
  444WAT     H2 1851   0.756   1.412   1.310  0.0204 -1.3527  1.3477
  444WAT    EPW 1852   0.674   1.403   1.283  0.3850 -0.4236 -0.1804
  445WAT      O 1853   0.909   4.315   1.793 -0.3171 -0.3677 -0.4015
  445WAT     H1 1854   0.972   4.359   1.849  0.1960 -0.8690 -0.5747
  445WAT     H2 1855   0.930   4.347   1.705 -0.6270 -0.1579 -0.3989
  445WAT    EPW 1856   0.920   4.325   1.788 -0.2903 -0.4061 -0.4240
  446WAT      O 1857   2.122   1.325   1.792 -0.7166 -0.4642  0.4377
  446WAT     H1 1858   2.033   1.358   1.798 -0.8000 -0.1311 -1.8091
  446WAT     H2 1859   2.113   1.230   1.799 -1.4503 -0.5369 -1.0092
  446WAT    EPW 1860   2.109   1.316   1.794 -0.8244 -0.4299 -0.0495
  447WAT      O 1861   2.533   0.424   0.539 -0.2763 -0.5482  0.6794
  447WAT     H1 1862   2.461   0.436   0.477 -0.1572 -2.4701  0.1190
  447WAT     H2 1863   2.508   0.347   0.591  0.9138 -0.6449  1.1524
  447WAT    EPW 1864   2.520   0.415   0.538 -0.1036 -0.8144  0.6679
  448WAT      O 1865   3.664   2.604   2.440 -0.7547  0.1276  0.2424
  448WAT     H1 1866   3.638   2.563   2.523 -3.0821 -0.1430 -0.5345
  448WAT     H2 1867   3.712   2.682   2.465 -0.2634 -0.6456  1.8229
  448WAT    EPW 1868   3.667   2.609   2.454 -0.9969 -0.0101  0.3484
  449WAT      O 1869   2.836   3.629   1.267  0.1509  0.1544  0.2756
  449WAT     H1 1870   2.902   3.592   1.209 -1.7247 -4.3226  0.6286
  449WAT     H2 1871   2.876   3.626   1.354 -0.1736 -1.9151  0.3964
  449WAT    EPW 1872   2.850   3.624   1.271 -0.1393 -0.7090  0.3381
  450WAT      O 1873   1.147   3.878   0.072  0.1790 -0.3064 -0.2969
  450WAT     H1 1874   1.181   3.803   0.121 -0.0276  0.5692  1.2583
  450WAT     H2 1875   1.223   3.934   0.058 -0.1726  0.6276  1.2824
  450WAT    EPW 1876   1.162   3.875   0.076  0.1053 -0.0677  0.1165
  451WAT      O 1877   1.792   3.549   1.543 -0.5578  0.5603  0.5456
  451WAT     H1 1878   1.823   3.468   1.582  0.2540  0.7294  0.2734
  451WAT     H2 1879   1.860   3.614   1.563 -0.9902  1.0723  0.4011
  451WAT    EPW 1880   1.805   3.547   1.551 -0.5077  0.6502  0.4906
  452WAT      O 1881   1.889   0.135   3.637  0.0439  0.3892 -0.0918
  452WAT     H1 1882   1.828   0.203   3.666 -0.0651 -0.1312  0.9433
  452WAT     H2 1883   1.972   0.157   3.680  0.0528 -0.0456  0.1110
  452WAT    EPW 1884   1.892   0.147   3.646  0.0307  0.2632  0.0715
  453WAT      O 1885   0.088   2.325   0.814 -0.2753 -0.0939  0.2981
  453WAT     H1 1886   0.167   2.328   0.867 -1.3680  0.6389  1.9831
  453WAT     H2 1887   0.018   2.308   0.876 -2.1442  4.4060 -0.1635
  453WAT    EPW 1888   0.089   2.323   0.829 -0.6659  0.5963  0.4595
  454WAT      O 1889   2.063   3.134   2.781  0.4766  0.0481  0.0985
  454WAT     H1 1890   2.048   3.221   2.820  0.2310  0.0067  0.0960
  454WAT     H2 1891   2.149   3.108   2.815  1.6374  1.2976 -1.7209
  454WAT    EPW 1892   2.073   3.142   2.791  0.5973  0.2075 -0.1418
  455WAT      O 1893   1.508   1.221   0.801 -0.2652  0.2792  0.0936
  455WAT     H1 1894   1.581   1.278   0.778 -0.8462  0.7109 -0.7331
  455WAT     H2 1895   1.544   1.161   0.866  1.3349 -0.6169 -1.5034
  455WAT    EPW 1896   1.522   1.220   0.806 -0.1307  0.2180 -0.2261
  456WAT      O 1897   2.800   3.719   2.308  0.0447  0.2290 -0.3681
  456WAT     H1 1898   2.837   3.693   2.224  0.4905 -1.1402  0.2274
  456WAT     H2 1899   2.715   3.675   2.311  0.5798 -0.7790  0.4283
  456WAT    EPW 1900   2.793   3.710   2.297  0.1741 -0.0845 -0.1845
  457WAT      O 1901   2.222   4.192   3.559  0.2806  0.5114  0.0818
  457WAT     H1 1902   2.278   4.248   3.613  1.5749 -1.6778  1.1397
  457WAT     H2 1903   2.178   4.135   3.622  0.7795 -1.1999 -1.0426
  457WAT    EPW 1904   2.224   4.192   3.575  0.5171 -0.0031  0.0730
  458WAT      O 1905   3.327   1.264   1.644  0.2198  0.4615 -0.2212
  458WAT     H1 1906   3.385   1.290   1.572 -1.3336 -0.9874 -2.1227
  458WAT     H2 1907   3.379   1.202   1.695 -0.0996 -2.4230 -3.0490
  458WAT    EPW 1908   3.342   1.259   1.641 -0.0272 -0.1100 -0.8449
  459WAT      O 1909   2.238   3.340   1.316  0.1868 -0.4059 -0.1302
  459WAT     H1 1910   2.230   3.365   1.224 -1.3798  0.7681  0.2890
  459WAT     H2 1911   2.163   3.283   1.331 -0.6352  0.8851  0.8552
  459WAT    EPW 1912   2.227   3.336   1.306 -0.1283 -0.0808  0.0551
  460WAT      O 1913   3.490   1.605   3.441 -0.2307 -0.5821  0.0934
  460WAT     H1 1914   3.527   1.693   3.448  0.0410 -0.6016 -0.8344
  460WAT     H2 1915   3.499   1.584   3.348  0.2558 -1.8265  0.4094
  460WAT    EPW 1916   3.496   1.614   3.429 -0.1307 -0.7488  0.0127
  461WAT      O 1917   0.359   1.462   1.173 -0.3164 -0.0791 -0.3167
  461WAT     H1 1918   0.368   1.474   1.079  0.2454 -1.2306 -0.4268
  461WAT     H2 1919   0.329   1.371   1.183 -2.7673  0.7209  0.5122
  461WAT    EPW 1920   0.356   1.452   1.162 -0.5655 -0.1255 -0.2219
  462WAT      O 1921   2.933   0.895   0.750  0.6579 -0.3031  0.6645
  462WAT     H1 1922   2.882   0.817   0.774  1.0076 -0.5587  0.5853
  462WAT     H2 1923   2.913   0.909   0.657  0.3641 -0.1217  0.7547
  462WAT    EPW 1924   2.924   0.886   0.741  0.6653 -0.3129  0.6660
  463WAT      O 1925   0.532   0.790   1.193  0.0752 -0.1503  0.6946
  463WAT     H1 1926   0.554   0.871   1.146 -1.2588 -1.1939 -1.9789
  463WAT     H2 1927   0.615   0.743   1.199  0.5292  0.6158  0.5846
  463WAT    EPW 1928   0.545   0.795   1.187 -0.0408 -0.1869  0.3275
  464WAT      O 1929   0.478   0.604   3.000 -0.1849  0.0280 -0.0929
  464WAT     H1 1930   0.441   0.691   2.984 -0.9671  0.1237  1.9205
  464WAT     H2 1931   0.436   0.576   3.081  2.0478 -1.1041  0.7310
  464WAT    EPW 1932   0.468   0.612   3.009  0.0064 -0.1087  0.2813
  465WAT      O 1933   2.726   3.120   1.738 -0.6601  0.1384  0.0662
  465WAT     H1 1934   2.730   3.037   1.786  0.7239 -1.2343 -2.2102
  465WAT     H2 1935   2.764   3.185   1.797 -0.6172 -1.0825  1.4339
  465WAT    EPW 1936   2.731   3.117   1.752 -0.4719 -0.2037 -0.0537
  466WAT      O 1937   3.245   2.852   3.797 -0.7670  0.2702  0.2265
  466WAT     H1 1938   3.291   2.782   3.844 -0.2940 -0.1714 -0.8602
  466WAT     H2 1939   3.153   2.829   3.805 -0.6009 -0.7148 -0.4342
  466WAT    EPW 1940   3.239   2.840   3.804 -0.6827  0.0820 -0.0040
  467WAT      O 1941   3.348   3.697   1.507  0.3802  0.2269 -0.0626
  467WAT     H1 1942   3.279   3.632   1.525  2.2297 -1.3915  1.6740
  467WAT     H2 1943   3.389   3.666   1.426  1.2235 -0.8025  0.7335
  467WAT    EPW 1944   3.344   3.684   1.499  0.7353 -0.1223  0.2714
  468WAT      O 1945   2.739   1.255   0.377  0.2546  0.2086 -0.6586
  468WAT     H1 1946   2.720   1.223   0.289  1.1287 -0.2754 -0.6855
  468WAT     H2 1947   2.789   1.335   0.363  1.4361 -0.4946 -0.6367
  468WAT    EPW 1948   2.743   1.261   0.364  0.5257  0.0520 -0.6593
  469WAT      O 1949   1.486   1.391   2.432  0.1121 -0.2337 -0.2070
  469WAT     H1 1950   1.460   1.476   2.468  1.2471 -0.5261  1.3987
  469WAT     H2 1951   1.464   1.328   2.501 -0.2440 -1.1856 -1.1719
  469WAT    EPW 1952   1.480   1.394   2.446  0.2148 -0.3978 -0.1225
  470WAT      O 1953   1.565   2.462   0.665 -0.1625 -0.2119 -0.3452
  470WAT     H1 1954   1.588   2.527   0.731 -2.5209 -1.2300  1.6426
  470WAT     H2 1955   1.633   2.470   0.598  0.5386  3.1152  0.6052
  470WAT    EPW 1956   1.577   2.471   0.665 -0.3811  0.0926  0.0424
  471WAT      O 1957   1.763   1.386   2.380  0.2603 -0.6970 -0.2755
  471WAT     H1 1958   1.675   1.404   2.413  0.3060  0.2109 -0.6067
  471WAT     H2 1959   1.783   1.460   2.322  1.4778 -0.5530  0.2797
  471WAT    EPW 1960   1.754   1.398   2.377  0.4269 -0.5582 -0.2459
  472WAT      O 1961   2.697   2.589   1.745 -0.0739  0.1586 -0.2317
  472WAT     H1 1962   2.762   2.538   1.793 -0.7599 -0.8906 -0.3844
  472WAT     H2 1963   2.635   2.524   1.713  0.3324  0.8087 -2.5265
  472WAT    EPW 1964   2.697   2.574   1.747 -0.1108  0.1060 -0.5545
  473WAT      O 1965   0.810   3.461   3.246 -0.7086  0.2971  0.0629
  473WAT     H1 1966   0.804   3.366   3.233  0.2141  0.5055 -2.4244
  473WAT     H2 1967   0.760   3.477   3.326 -1.6433 -2.1568  0.0726
  473WAT    EPW 1968   0.803   3.450   3.255 -0.7102  0.0009 -0.2639
  474WAT      O 1969   1.447   1.168   0.504 -0.5993  0.0537 -0.0450
  474WAT     H1 1970   1.466   1.198   0.593  0.8645  0.8872 -0.6106
  474WAT     H2 1971   1.503   1.221   0.448 -0.8897 -1.0296 -1.4195
  474WAT    EPW 1972   1.457   1.179   0.508 -0.4445  0.0208 -0.3009
  475WAT      O 1973   2.414   3.052   0.749 -0.1074 -0.3141  0.1968
  475WAT     H1 1974   2.414   3.147   0.750 -0.0727 -0.2452 -1.9777
  475WAT     H2 1975   2.451   3.027   0.834  1.2576  1.6106  0.2334
  475WAT    EPW 1976   2.419   3.061   0.760  0.0772 -0.0512 -0.0852
  476WAT      O 1977   1.302   0.040   2.250  0.3069  0.0607  0.0585
  476WAT     H1 1978   1.215   0.052   2.290  1.1685 -1.3723  2.6121
  476WAT     H2 1979   1.334   0.128   2.234 -0.9374  0.6445  0.6307
  476WAT    EPW 1980   1.294   0.053   2.253  0.2564 -0.0513  0.4708
  477WAT      O 1981   0.867   4.135   2.541  0.0080 -0.0387 -0.5448
  477WAT     H1 1982   0.826   4.062   2.495  1.7878 -1.2698 -0.2898
  477WAT     H2 1983   0.845   4.120   2.633 -0.0877  0.0715 -0.5490
  477WAT    EPW 1984   0.859   4.123   2.547  0.2301 -0.1865 -0.5117
  478WAT      O 1985   3.648   0.732   0.847 -0.3021  0.0553 -0.1146
  478WAT     H1 1986   3.629   0.660   0.907  2.0855 -0.1687  0.4992
  478WAT     H2 1987   3.624   0.811   0.895  1.7588 -0.1033  1.3401
  478WAT    EPW 1988   3.643   0.733   0.861  0.2846  0.0048  0.1582
  479WAT      O 1989   2.707   0.014   0.284 -0.4815  0.3345  0.1953
  479WAT     H1 1990   2.737   0.102   0.262  1.5924 -0.4426 -0.3363
  479WAT     H2 1991   2.732   0.003   0.375  1.4313 -0.4725 -0.3697
  479WAT    EPW 1992   2.714   0.024   0.293  0.0443  0.1256  0.0507
  480WAT      O 1993   0.725   1.165   3.698 -0.5253 -0.2827  0.2444
  480WAT     H1 1994   0.725   1.093   3.760 -0.1895 -0.2789  0.2545
  480WAT     H2 1995   0.685   1.129   3.619 -0.4950 -0.4360  0.2985
  480WAT    EPW 1996   0.720   1.151   3.695 -0.4770 -0.3024  0.2529
  481WAT      O 1997   0.614   3.473   0.782 -0.4013  0.3471  0.0219
  481WAT     H1 1998   0.699   3.452   0.821 -0.0442  0.6949 -0.5521
  481WAT     H2 1999   0.551   3.452   0.850 -0.1657 -3.4047 -0.7039
  481WAT    EPW 2000   0.617   3.467   0.796 -0.3231 -0.1019 -0.1495
  482WAT      O 2001   0.486   1.443   1.798 -0.2587 -0.0107  0.3711
  482WAT     H1 2002   0.573   1.460   1.761 -0.5476 -1.2498 -0.9712
  482WAT     H2 2003   0.503   1.386   1.873  0.0352 -1.3840 -0.6947
  482WAT    EPW 2004   0.500   1.438   1.803 -0.2580 -0.3552  0.0535
  483WAT      O 2005   1.575   0.001   3.576  0.2716  0.2769  0.0873
  483WAT     H1 2006   1.615   0.003   3.489 -0.6165  0.7286 -0.3262
  483WAT     H2 2007   1.581   0.091   3.608  0.1553  0.2138  0.2877
  483WAT    EPW 2008   1.581   0.013   3.569  0.1392  0.3282  0.0592
  484WAT      O 2009   1.346   0.883   1.739  0.3572  0.0675  0.4906
  484WAT     H1 2010   1.279   0.949   1.754  0.8403  0.3342  1.6644
  484WAT     H2 2011   1.308   0.802   1.773  0.2367  0.0048  0.2043
  484WAT    EPW 2012   1.332   0.881   1.746  0.4050  0.0944  0.6077
  485WAT      O 2013   1.731   0.777   0.015 -0.3596  0.0835  0.3061
  485WAT     H1 2014   1.785   0.813  -0.055  0.3210 -0.7478  0.3865
  485WAT     H2 2015   1.666   0.845   0.033 -0.4273  0.3849 -0.9986
  485WAT    EPW 2016   1.730   0.790   0.008 -0.2788  0.0136  0.1446
  486WAT      O 2017   2.490   3.996   2.268 -0.7258  0.3415  0.0228
  486WAT     H1 2018   2.443   4.023   2.346 -0.8347  1.0439 -0.2812
  486WAT     H2 2019   2.582   3.993   2.294 -0.7160  0.9931  0.0604
  486WAT    EPW 2020   2.496   3.999   2.281 -0.7388  0.5201 -0.0123
  487WAT      O 2021   3.156   1.272   3.445 -0.1226  0.6683 -0.3047
  487WAT     H1 2022   3.185   1.184   3.421  0.8745  1.0592 -0.5578
  487WAT     H2 2023   3.180   1.281   3.537  0.6489  1.0309 -0.5425
  487WAT    EPW 2024   3.163   1.262   3.454  0.1107  0.7677 -0.3694
  488WAT      O 2025   0.450   3.573   0.568 -0.2654  0.7064  0.5211
  488WAT     H1 2026   0.525   3.527   0.604 -0.1104  0.8941  0.4370
  488WAT     H2 2027   0.487   3.636   0.506 -0.3417  2.1956  1.9319
  488WAT    EPW 2028   0.464   3.575   0.564 -0.2551  0.9276  0.6961
  489WAT      O 2029   0.108   3.772   2.730  0.0663 -0.1975 -0.1585
  489WAT     H1 2030   0.134   3.716   2.802 -2.4013 -0.3254  0.7386
  489WAT     H2 2031   0.129   3.722   2.651  0.3513 -1.2231  0.5507
  489WAT    EPW 2032   0.114   3.758   2.729 -0.2216 -0.3497  0.0534
  490WAT      O 2033   2.381   1.449   3.092 -0.0213  0.0883  0.0793
  490WAT     H1 2034   2.316   1.461   3.024 -0.8206 -0.3131  0.7527
  490WAT     H2 2035   2.362   1.518   3.157  1.2808  1.0343 -0.4865
  490WAT    EPW 2036   2.370   1.460   3.092  0.0450  0.1601  0.0935
  491WAT      O 2037   3.356   3.497   3.220  0.2709 -0.0298  0.1069
  491WAT     H1 2038   3.339   3.540   3.304 -0.8687  0.4412 -0.3459
  491WAT     H2 2039   3.282   3.521   3.165 -0.8111 -3.1213  0.0108
  491WAT    EPW 2040   3.344   3.506   3.224 -0.0221 -0.3754  0.0345
  492WAT      O 2041   1.052   4.252   1.172 -0.4308  0.2781  0.7148
  492WAT     H1 2042   1.113   4.324   1.154 -1.0264  0.8869  1.0593
  492WAT     H2 2043   1.070   4.227   1.263 -1.1538  0.9420  1.0578
  492WAT    EPW 2044   1.062   4.258   1.182 -0.6047  0.4460  0.8055
  493WAT      O 2045   3.531   1.710   0.229 -0.4874 -0.2007  0.0881
  493WAT     H1 2046   3.445   1.672   0.248 -0.0670 -0.5387  1.4325
  493WAT     H2 2047   3.517   1.765   0.152 -2.2330  0.8521  1.0944
  493WAT    EPW 2048   3.518   1.712   0.222 -0.6622 -0.1065  0.3981
  494WAT      O 2049   3.589   1.468   2.440  0.1215 -0.3151 -0.1826
  494WAT     H1 2050   3.537   1.463   2.359 -1.2013 -0.1344  0.6199
  494WAT     H2 2051   3.611   1.378   2.460  0.0488 -0.4047 -0.4973
  494WAT    EPW 2052   3.585   1.456   2.432 -0.0626 -0.3031 -0.1183
  495WAT      O 2053   2.149   3.536   2.562  0.2048 -0.4769  0.4731
  495WAT     H1 2054   2.182   3.590   2.491 -1.5242  3.5149  2.3813
  495WAT     H2 2055   2.222   3.530   2.624  0.1096  0.7285  0.7269
  495WAT    EPW 2056   2.163   3.542   2.561 -0.0358  0.2085  0.7583
  496WAT      O 2057   2.031   1.611   0.064 -0.4229  0.4047  0.1127
  496WAT     H1 2058   2.119   1.637   0.036 -0.2785 -0.2131 -0.0084
  496WAT     H2 2059   1.974   1.681   0.030 -0.0105  0.6937  0.0027
  496WAT    EPW 2060   2.035   1.624   0.056 -0.3494  0.3614  0.0822
  497WAT      O 2061   2.716   2.526   2.382  0.1033 -0.0739  0.0609
  497WAT     H1 2062   2.754   2.445   2.347 -1.4120 -0.8512  0.1348
  497WAT     H2 2063   2.760   2.539   2.466  3.1737  1.3464 -1.6029
  497WAT    EPW 2064   2.727   2.517   2.388  0.3084  0.0109 -0.1488
  498WAT      O 2065   1.438   0.650   2.386  0.0548  0.6135  0.2028
  498WAT     H1 2066   1.464   0.731   2.431 -0.4728  1.3553 -0.7788
  498WAT     H2 2067   1.348   0.636   2.414 -0.0080  0.6309  0.0121
  498WAT    EPW 2068   1.429   0.659   2.396 -0.0230  0.7136  0.0481
  499WAT      O 2069   0.234   2.666   0.786  0.3284  0.1808  0.3860
  499WAT     H1 2070   0.218   2.721   0.862 -1.9585  1.2192 -0.7390
  499WAT     H2 2071   0.155   2.674   0.733  1.3337 -1.4591 -1.5329
  499WAT    EPW 2072   0.221   2.674   0.789  0.1593  0.1014 -0.0154
  500WAT      O 2073   1.451   2.108   3.296 -0.7239  0.0588  0.1474
  500WAT     H1 2074   1.481   2.186   3.249  0.8305  0.0986  1.1362
  500WAT     H2 2075   1.405   2.056   3.230  0.0228  0.8380 -1.0221
  500WAT    EPW 2076   1.449   2.111   3.281 -0.4204  0.1668  0.1235
  501WAT      O 2077   1.895   2.646   2.972  0.7402  0.4625 -0.4290
  501WAT     H1 2078   1.909   2.657   3.066  1.3706 -1.1515 -0.3026
  501WAT     H2 2079   1.983   2.649   2.935  0.5103  0.8624 -0.9513
  501WAT    EPW 2080   1.909   2.648   2.980  0.7930  0.3023 -0.4812
  502WAT      O 2081   3.378   1.454   0.104 -0.1261  0.4435 -0.5747
  502WAT     H1 2082   3.388   1.374   0.155  2.3344  1.9102  1.4896
  502WAT     H2 2083   3.327   1.512   0.160 -0.7948  0.7832 -1.5129
  502WAT    EPW 2084   3.373   1.451   0.118  0.1102  0.6818 -0.4262
  503WAT      O 2085   0.768   0.507   3.005 -0.5260 -0.0529  0.6553
  503WAT     H1 2086   0.768   0.483   3.098 -1.3430 -1.1279  0.3975
  503WAT     H2 2087   0.676   0.518   2.983 -0.4769 -1.5924 -0.4447
  503WAT    EPW 2088   0.756   0.505   3.014 -0.6272 -0.3977  0.4762
  504WAT      O 2089   1.215   0.712   3.509 -0.3958 -0.1611  0.1239
  504WAT     H1 2090   1.124   0.682   3.517 -0.2843 -0.3667  0.6928
  504WAT     H2 2091   1.241   0.732   3.599 -0.0540  0.4292 -0.1068
  504WAT    EPW 2092   1.206   0.710   3.522 -0.3360 -0.1103  0.1685
  505WAT      O 2093   0.625   2.233   2.330  0.5003 -0.4143  0.7663
  505WAT     H1 2094   0.664   2.318   2.348  0.1341 -0.3474  1.2715
  505WAT     H2 2095   0.679   2.171   2.380  1.7408 -0.6921 -0.8387
  505WAT    EPW 2096   0.637   2.236   2.339  0.6156 -0.4421  0.6212
  506WAT      O 2097   1.386   2.063   1.003  0.0219  0.1841 -0.2507
  506WAT     H1 2098   1.402   2.132   0.939 -0.6890 -0.0427 -0.6897
  506WAT     H2 2099   1.373   2.109   1.086 -0.3507  0.5705 -0.5209
  506WAT    EPW 2100   1.386   2.078   1.006 -0.1210  0.2052 -0.3442
  507WAT      O 2101   0.681   0.755   3.171  0.1618 -0.0892  0.0712
  507WAT     H1 2102   0.619   0.722   3.107 -1.5755  1.8809  0.6374
  507WAT     H2 2103   0.707   0.678   3.222 -2.9593 -0.8041  0.7701
  507WAT    EPW 2104   0.677   0.741   3.169 -0.4790  0.0764  0.2381
  508WAT      O 2105   1.393   0.444   0.577 -0.5410  0.5462 -0.8326
  508WAT     H1 2106   1.373   0.366   0.526 -0.6664  0.1025 -0.1253
  508WAT     H2 2107   1.478   0.426   0.617  0.2214  1.4659 -1.9717
  508WAT    EPW 2108   1.401   0.431   0.576 -0.4570  0.6090 -0.8896
  509WAT      O 2109   1.308   4.159   1.309 -0.0354 -0.7929 -0.1516
  509WAT     H1 2110   1.383   4.197   1.263 -0.5752  1.0501  0.3729
  509WAT     H2 2111   1.326   4.176   1.402 -0.3060 -1.8860  0.1178
  509WAT    EPW 2112   1.320   4.167   1.315 -0.1423 -0.6940 -0.0469
  510WAT      O 2113   2.328   0.353   3.626 -0.1236  0.1560 -0.0849
  510WAT     H1 2114   2.315   0.297   3.702  0.0439  2.1730  1.5135
  510WAT     H2 2115   2.243   0.393   3.610 -0.5674 -1.3836 -2.0061
  510WAT    EPW 2116   2.315   0.351   3.634 -0.1601  0.2190 -0.1275
  511WAT      O 2117   1.259   2.274   2.305 -0.4222 -0.2622  0.0790
  511WAT     H1 2118   1.290   2.359   2.275  0.3498 -0.5379  0.0856
  511WAT     H2 2119   1.299   2.211   2.244  0.6663 -0.7750  1.2854
  511WAT    EPW 2120   1.268   2.277   2.293 -0.1768 -0.3662  0.2390
  512WAT      O 2121   0.105   2.585   2.110 -0.5273 -0.3781  0.3261
  512WAT     H1 2122   0.135   2.653   2.170  0.4336 -0.7790  0.3304
  512WAT     H2 2123   0.048   2.630   2.049 -0.2869  0.3373  0.6190
  512WAT    EPW 2124   0.102   2.600   2.110 -0.3689 -0.3366  0.3653
  513WAT      O 2125   0.251   0.380   0.079 -0.1540 -0.1606 -0.1656
  513WAT     H1 2126   0.239   0.387  -0.016  0.3367 -0.2071 -0.2366
  513WAT     H2 2127   0.202   0.302   0.104 -1.0227  0.3464 -0.2402
  513WAT    EPW 2128   0.243   0.371   0.070 -0.2038 -0.0999 -0.1848
  514WAT      O 2129   2.022   2.076   3.506  0.0860 -0.3918 -0.1707
  514WAT     H1 2130   2.092   2.013   3.521  0.6957  0.2187 -0.3416
  514WAT     H2 2131   2.033   2.102   3.414 -0.6277 -0.5935 -0.3194
  514WAT    EPW 2132   2.033   2.071   3.496  0.0723 -0.3379 -0.2129
  515WAT      O 2133   0.881   2.229   1.627 -0.2895 -0.4633 -0.2738
  515WAT     H1 2134   0.940   2.304   1.612 -0.2566 -0.4905 -0.2803
  515WAT     H2 2135   0.924   2.156   1.583 -0.2595 -0.5138 -0.1615
  515WAT    EPW 2136   0.895   2.229   1.619 -0.2812 -0.4736 -0.2599
  516WAT      O 2137   0.228   3.053   2.100  0.2705 -0.0391  0.6397
  516WAT     H1 2138   0.274   2.971   2.116  0.3718  0.2479  1.9345
  516WAT     H2 2139   0.201   3.048   2.008  0.5273 -1.3777  0.6165
  516WAT    EPW 2140   0.231   3.042   2.090  0.3177 -0.1778  0.8074
  517WAT      O 2141   1.706   2.555   2.796  0.1770  0.0428  0.1604
  517WAT     H1 2142   1.748   2.589   2.875  0.6755  0.2420 -0.1853
  517WAT     H2 2143   1.724   2.621   2.729 -0.2937 -0.0959 -0.1051
  517WAT    EPW 2144   1.714   2.568   2.797  0.1806  0.0508  0.0797
  518WAT      O 2145   1.892   3.855   2.200 -0.0176  0.6048  0.2570
  518WAT     H1 2146   1.833   3.814   2.137 -0.3966 -0.0470  1.0103
  518WAT     H2 2147   1.897   3.947   2.173  0.7481  0.1193 -1.4034
  518WAT    EPW 2148   1.885   3.862   2.188  0.0334  0.4548  0.1374
  519WAT      O 2149   3.248   1.105   2.232 -0.0777 -0.7621  0.0742
  519WAT     H1 2150   3.208   1.020   2.216 -0.7842 -0.1616 -1.6052
  519WAT     H2 2151   3.251   1.147   2.146  1.0379  0.5814  0.7227
  519WAT    EPW 2152   3.243   1.100   2.219 -0.0238 -0.5057 -0.0618
  520WAT      O 2153   1.775   3.039   1.246  0.3303 -0.1745 -0.7456
  520WAT     H1 2154   1.758   2.948   1.219 -2.2402  0.1624 -0.4738
  520WAT     H2 2155   1.737   3.046   1.333  0.6517  1.1346 -0.6896
  520WAT    EPW 2156   1.768   3.028   1.254  0.0337  0.0426 -0.7024
  521WAT      O 2157   1.337   2.535   2.214  0.2211  0.5345 -0.4815
  521WAT     H1 2158   1.356   2.601   2.148 -0.0912  0.8461 -0.2651
  521WAT     H2 2159   1.298   2.584   2.286 -0.2386  0.0860 -0.4168
  521WAT    EPW 2160   1.334   2.550   2.215  0.1193  0.5165 -0.4444
  522WAT      O 2161   2.835   2.549   2.645  0.3948 -0.5712 -0.1809
  522WAT     H1 2162   2.834   2.632   2.693 -0.2119 -0.5211 -0.2660
  522WAT     H2 2163   2.820   2.483   2.712 -1.7575 -0.4115 -0.4187
  522WAT    EPW 2164   2.833   2.551   2.660  0.0309 -0.5435 -0.2235
  523WAT      O 2165   2.042   0.793   0.703  0.2897  0.0727  0.0921
  523WAT     H1 2166   2.013   0.882   0.719 -0.9574 -0.6402  2.2022
  523WAT     H2 2167   1.989   0.763   0.629 -0.1109  0.7190  0.1124
  523WAT    EPW 2168   2.031   0.801   0.695  0.0724  0.0639  0.3731
  524WAT      O 2169   2.198   2.860   3.816 -0.6379 -0.3712  0.1621
  524WAT     H1 2170   2.290   2.881   3.797 -0.9719 -0.1514 -1.3582
  524WAT     H2 2171   2.201   2.774   3.856  0.1716 -0.8377 -0.8431
  524WAT    EPW 2172   2.210   2.852   3.819 -0.5752 -0.4038 -0.1710
  525WAT      O 2173   1.470   4.307   0.466  0.4572  0.6242 -0.1375
  525WAT     H1 2174   1.508   4.318   0.553 -0.1030  1.8044 -0.0236
  525WAT     H2 2175   1.389   4.358   0.468  0.3203  0.4958 -1.2799
  525WAT    EPW 2176   1.464   4.315   0.477  0.3653  0.7629 -0.2731
  526WAT      O 2177   1.588   4.297   1.646  0.1250 -0.0608  0.2387
  526WAT     H1 2178   1.513   4.248   1.679  0.2035 -0.7329 -0.5365
  526WAT     H2 2179   1.658   4.280   1.710 -0.4245  0.7271  1.0654
  526WAT    EPW 2180   1.588   4.288   1.659  0.0629 -0.0455  0.2455
  527WAT      O 2181   0.121   2.809   2.306 -0.1331 -0.1966  0.0270
  527WAT     H1 2182   0.138   2.819   2.400  0.7737 -1.3352 -0.0018
  527WAT     H2 2183   0.178   2.874   2.265  0.1848 -0.3592  0.2113
  527WAT    EPW 2184   0.130   2.819   2.313  0.0284 -0.3682  0.0475
  528WAT      O 2185   1.276   0.941   3.345  0.3906  0.3200 -0.2402
  528WAT     H1 2186   1.195   0.989   3.332  0.3044  0.6391  1.3174
  528WAT     H2 2187   1.248   0.854   3.373  0.5872  0.3412  0.0249
  528WAT    EPW 2188   1.262   0.936   3.347  0.4052  0.3649  0.0002
  529WAT      O 2189   3.698   0.099   2.181  0.3164  0.2690 -0.3384
  529WAT     H1 2190   3.613   0.116   2.222  0.7228  0.1207  0.5993
  529WAT     H2 2191   3.731   0.022   2.227  0.7610  0.0598 -1.0073
  529WAT    EPW 2192   3.691   0.091   2.193  0.4286  0.2219 -0.3030
  530WAT      O 2193   0.173   2.976   0.176 -0.3092  0.3943  0.0029
  530WAT     H1 2194   0.156   2.985   0.082 -0.1352 -1.9300 -0.3084
  530WAT     H2 2195   0.091   3.000   0.218 -0.4857  1.1662 -0.7512
  530WAT    EPW 2196   0.160   2.981   0.169 -0.3095  0.1895 -0.1376
  531WAT      O 2197   2.255   2.756   3.121 -0.3036  0.0123  0.1386
  531WAT     H1 2198   2.244   2.749   3.026 -0.8527 -1.2154  0.2779
  531WAT     H2 2199   2.310   2.681   3.144  0.9512  1.0464  0.6404
  531WAT    EPW 2200   2.261   2.745   3.111 -0.2105 -0.0132  0.2231
  532WAT      O 2201   1.095   0.413   2.624 -0.1812 -0.2512 -0.1036
  532WAT     H1 2202   1.132   0.466   2.554  0.9860  0.0373  0.7094
  532WAT     H2 2203   1.019   0.462   2.655  1.8028  1.8694  1.7541
  532WAT    EPW 2204   1.090   0.426   2.619  0.2344  0.0666  0.2487
  533WAT      O 2205   1.358   4.261   3.134 -0.4396 -0.3455 -0.0525
  533WAT     H1 2206   1.374   4.190   3.197  0.7712  0.2097  0.2968
  533WAT     H2 2207   1.310   4.327   3.184 -1.0638 -0.6711 -0.2183
  533WAT    EPW 2208   1.354   4.260   3.149 -0.3622 -0.3152 -0.0283
  534WAT      O 2209   1.861   2.203   2.018 -0.0725 -0.5067 -0.0230
  534WAT     H1 2210   1.844   2.220   2.111  1.1945  0.0725  0.1243
  534WAT     H2 2211   1.907   2.282   1.987 -1.9544  0.0510 -1.5825
  534WAT    EPW 2212   1.865   2.216   2.026 -0.1536 -0.3568 -0.2093
  535WAT      O 2213   1.868   0.448   0.490 -0.9102  0.6593 -0.1943
  535WAT     H1 2214   1.845   0.534   0.456 -0.3166  1.2671  0.8996
  535WAT     H2 2215   1.947   0.462   0.541 -1.1900 -0.4023  0.5775
  535WAT    EPW 2216   1.875   0.461   0.492 -0.8688  0.5995  0.0517
  536WAT      O 2217   3.360   2.227   2.192 -0.2480  0.1907 -0.3615
  536WAT     H1 2218   3.268   2.204   2.195 -0.0860 -0.7666 -1.9632
  536WAT     H2 2219   3.406   2.143   2.191  0.6777  0.6530  0.5581
  536WAT    EPW 2220   3.354   2.213   2.193 -0.1046  0.1254 -0.4515
  537WAT      O 2221   0.621   2.644   1.478  0.2761 -0.1492  0.1998
  537WAT     H1 2222   0.576   2.630   1.562  0.1754  1.6451  0.4968
  537WAT     H2 2223   0.653   2.734   1.484 -1.5188  0.7801 -2.5103
  537WAT    EPW 2224   0.620   2.654   1.490  0.0261  0.2101 -0.1185
  538WAT      O 2225   0.292   2.837   3.498  0.3850  0.0987  0.0073
  538WAT     H1 2226   0.282   2.759   3.444  0.6559  0.3341 -0.3830
  538WAT     H2 2227   0.381   2.832   3.533  0.5434  0.4403 -0.3451
  538WAT    EPW 2228   0.302   2.826   3.496  0.4416  0.1748 -0.0906
  539WAT      O 2229   0.916   4.078   3.844 -0.4093  0.4410  0.3060
  539WAT     H1 2230   0.839   4.024   3.861 -0.1709 -0.1164 -0.3516
  539WAT     H2 2231   0.988   4.032   3.886 -0.3041  0.5643  0.2631
  539WAT    EPW 2232   0.915   4.065   3.852 -0.3640  0.3837  0.2136
  540WAT      O 2233   2.966   1.356   1.724 -0.0290  0.1319  0.3341
  540WAT     H1 2234   2.882   1.401   1.722  0.6533  1.4552 -1.8841
  540WAT     H2 2235   2.952   1.274   1.676 -0.1619  0.1330  0.3727
  540WAT    EPW 2236   2.953   1.351   1.718  0.0435  0.3065  0.0466
  541WAT      O 2237   2.637   1.474   0.882 -0.0793 -0.1440 -0.0884
  541WAT     H1 2238   2.686   1.531   0.942  0.4278 -1.7808  1.1502
  541WAT     H2 2239   2.672   1.495   0.795  1.3670  0.1870  0.5381
  541WAT    EPW 2240   2.648   1.484   0.878  0.1783 -0.3162  0.1576
  542WAT      O 2241   2.792   3.181   3.156  0.0040 -0.1200 -0.0212
  542WAT     H1 2242   2.756   3.225   3.233  0.3847  1.4410 -0.6872
  542WAT     H2 2243   2.829   3.100   3.190 -2.9723 -1.2580  0.8899
  542WAT    EPW 2244   2.792   3.176   3.171 -0.3384 -0.0642  0.0111
  543WAT      O 2245   0.416   0.041   0.612  0.2386 -0.0284  0.2958
  543WAT     H1 2246   0.343   0.053   0.552 -0.5676  1.1064  1.4418
  543WAT     H2 2247   0.416  -0.053   0.632 -0.8178 -0.0641  0.1670
  543WAT    EPW 2248   0.406   0.030   0.607 -0.0071  0.1166  0.4299
  544WAT      O 2249   2.479   2.550   0.659 -0.4359 -0.2854  0.6207
  544WAT     H1 2250   2.426   2.592   0.592  1.4296 -1.1347 -1.5224
  544WAT     H2 2251   2.444   2.461   0.665  0.7684 -0.9022 -0.9254
  544WAT    EPW 2252   2.468   2.544   0.651 -0.0310 -0.4788  0.1341
  545WAT      O 2253   0.451   2.814   0.147 -0.1796 -0.1874  0.1257
  545WAT     H1 2254   0.472   2.784   0.235 -2.9625 -0.6376  0.7262
  545WAT     H2 2255   0.364   2.854   0.155  1.0371  3.2718 -1.6867
  545WAT    EPW 2256   0.442   2.816   0.159 -0.3862  0.2094 -0.0341
  546WAT      O 2257   0.704   0.532   1.028 -0.3593  0.0474  0.2179
  546WAT     H1 2258   0.780   0.494   0.984  0.5564  0.9468  0.9857
  546WAT     H2 2259   0.653   0.571   0.957 -0.5653 -1.3119 -0.4023
  546WAT    EPW 2260   0.707   0.532   1.013 -0.2657 -0.0133  0.2374
  547WAT      O 2261   1.605   2.925   0.046 -0.4858 -0.4091 -0.0736
  547WAT     H1 2262   1.631   2.916   0.137 -1.6971  0.4652  0.3805
  547WAT     H2 2263   1.678   2.972   0.005 -0.5780  0.4922  0.7766
  547WAT    EPW 2264   1.618   2.930   0.052 -0.6577 -0.1749  0.0984
  548WAT      O 2265   2.856   2.353   0.194  0.1301 -0.3766  0.4439
  548WAT     H1 2266   2.840   2.310   0.109  0.2635 -1.6016  1.0092
  548WAT     H2 2267   2.877   2.280   0.253 -1.5000  0.2856  1.9098
  548WAT    EPW 2268   2.856   2.337   0.191 -0.0673 -0.4508  0.7118
  549WAT      O 2269   3.429   2.167   0.880  0.2843 -0.2259  0.5387
  549WAT     H1 2270   3.415   2.114   0.802 -0.2349  0.4016  0.1879
  549WAT     H2 2271   3.407   2.257   0.852  0.3567  0.0457  1.3244
  549WAT    EPW 2272   3.424   2.172   0.866  0.2253 -0.1073  0.5961
  550WAT      O 2273   0.846   0.251   0.347 -0.7602  0.3019  0.5200
  550WAT     H1 2274   0.808   0.200   0.419 -0.4459 -0.2917  0.2704
  550WAT     H2 2275   0.840   0.193   0.271  0.6388  0.1971  0.4747
  550WAT    EPW 2276   0.840   0.236   0.346 -0.5342  0.2098  0.4811
  551WAT      O 2277   0.282   2.222   0.580 -0.0701 -0.6161 -0.1292
  551WAT     H1 2278   0.306   2.311   0.557 -0.5569 -0.4264  0.0929
  551WAT     H2 2279   0.198   2.230   0.624 -0.0722 -1.1742 -0.0213
  551WAT    EPW 2280   0.274   2.235   0.583 -0.1346 -0.6647 -0.0857
  552WAT      O 2281   2.006   4.001   3.679 -0.3261 -0.3154 -0.1667
  552WAT     H1 2282   1.973   4.026   3.765 -1.8005  0.8355 -1.0072
  552WAT     H2 2283   1.930   4.013   3.620  1.0061  0.3239 -1.8443
  552WAT    EPW 2284   1.991   4.006   3.682 -0.3449 -0.0793 -0.4988
  553WAT      O 2285   2.545   3.476   1.494 -0.0719 -0.4204  0.5550
  553WAT     H1 2286   2.456   3.512   1.496  0.1110  0.1324 -0.4503
  553WAT     H2 2287   2.564   3.466   1.401  0.4335 -1.7946  0.7962
  553WAT    EPW 2288   2.535   3.480   1.482  0.0189 -0.5288  0.4543
  554WAT      O 2289   3.046   3.075   0.596  0.1193  0.2882 -0.0261
  554WAT     H1 2290   2.990   3.005   0.560  0.1093 -0.3991  1.2738
  554WAT     H2 2291   2.990   3.121   0.659  0.4692  0.7613 -0.0570
  554WAT    EPW 2292   3.032   3.072   0.599  0.1641  0.2600  0.1412
  555WAT      O 2293   3.089   4.132   1.624  0.7008  0.1093  0.2896
  555WAT     H1 2294   3.051   4.046   1.605  0.4525  0.3049 -0.1089
  555WAT     H2 2295   3.034   4.168   1.693 -0.7474  0.9772 -1.2241
  555WAT    EPW 2296   3.077   4.125   1.630  0.4770  0.2496  0.0374
  556WAT      O 2297   3.312   2.073   0.651 -0.5500  0.2309 -0.2864
  556WAT     H1 2298   3.244   2.010   0.626  0.5927 -0.5750 -1.5252
  556WAT     H2 2299   3.263   2.153   0.673 -1.9676 -0.7560  0.3189
  556WAT    EPW 2300   3.296   2.076   0.650 -0.5862 -0.0056 -0.3700
  557WAT      O 2301   3.185   0.584   1.417  0.3271  0.5479  0.1310
  557WAT     H1 2302   3.171   0.678   1.432  3.0023  1.1310 -0.5525
  557WAT     H2 2303   3.240   0.556   1.489 -1.0626 -0.7437  0.7441
  557WAT    EPW 2304   3.190   0.593   1.428  0.4966  0.4544  0.1217
  558WAT      O 2305   1.199   3.367   3.706 -0.0827  0.2161  0.3176
  558WAT     H1 2306   1.256   3.366   3.782 -0.2222 -0.0692  0.4185
  558WAT     H2 2307   1.110   3.360   3.741 -0.0786 -1.6346  0.0656
  558WAT    EPW 2308   1.195   3.366   3.720 -0.1005 -0.0656  0.2977
  559WAT      O 2309   3.542   2.702   0.878 -0.1802  0.4883 -0.4854
  559WAT     H1 2310   3.554   2.686   0.972  1.2962  0.7673 -0.6060
  559WAT     H2 2311   3.477   2.772   0.874 -1.2592 -0.4305  0.2681
  559WAT    EPW 2312   3.535   2.709   0.890 -0.1278  0.4039 -0.4019
  560WAT      O 2313   1.559   0.020   1.982  0.2764 -0.3150  0.5156
  560WAT     H1 2314   1.514   0.093   2.025  0.5216  0.3414 -0.3100
  560WAT     H2 2315   1.489  -0.033   1.944  0.0570 -0.9190  1.7275
  560WAT    EPW 2316   1.544   0.023   1.982  0.2798 -0.3081  0.5666
  561WAT      O 2317   3.360   2.769   3.222 -0.2543  0.0308 -0.3608
  561WAT     H1 2318   3.455   2.768   3.210 -0.2133  0.0010 -0.0508
  561WAT     H2 2319   3.345   2.713   3.298 -0.3555  1.4376  0.6917
  561WAT    EPW 2320   3.370   2.762   3.231 -0.2623  0.2124 -0.1811
  562WAT      O 2321   0.655   2.490   0.946 -0.1369 -0.0889 -0.1886
  562WAT     H1 2322   0.689   2.424   1.006 -0.7398 -1.9276 -1.7768
  562WAT     H2 2323   0.564   2.465   0.931 -0.3760  1.0956 -0.8419
  562WAT    EPW 2324   0.648   2.478   0.952 -0.2479 -0.1752 -0.4842
  563WAT      O 2325   1.234   1.383   1.138  0.3539  0.2627 -0.1028
  563WAT     H1 2326   1.219   1.307   1.194 -1.7624 -0.2750 -1.2822
  563WAT     H2 2327   1.326   1.406   1.153  0.8405 -2.0179  0.9025
  563WAT    EPW 2328   1.244   1.376   1.147  0.1390 -0.1090 -0.1258
  564WAT      O 2329   2.214   1.882   3.507 -0.0104  0.2719  0.2503
  564WAT     H1 2330   2.297   1.915   3.541 -0.4589  1.6790  0.0572
  564WAT     H2 2331   2.217   1.900   3.413 -0.9203  1.2677  0.3906
  564WAT    EPW 2332   2.225   1.889   3.499 -0.1896  0.5888  0.2433
  565WAT      O 2333   1.060   3.362   1.672  0.3501  0.3410 -0.0934
  565WAT     H1 2334   1.015   3.414   1.606 -1.3000 -1.1805 -0.2337
  565WAT     H2 2335   1.139   3.331   1.627 -0.0224  0.5018 -0.8874
  565WAT    EPW 2336   1.065   3.365   1.657  0.0833  0.1615 -0.2167
  566WAT      O 2337   3.564   3.669   3.078  0.1323  0.5385  0.1966
  566WAT     H1 2338   3.518   3.697   3.158 -0.0687  0.1319  0.2242
  566WAT     H2 2339   3.598   3.751   3.041  2.5227  0.5378  2.0825
  566WAT    EPW 2340   3.562   3.684   3.084  0.4211  0.4848  0.4490
  567WAT      O 2341   3.014   0.213   3.430  0.0400 -0.3382 -0.3126
  567WAT     H1 2342   3.074   0.177   3.365  0.9705  0.1607  0.2515
  567WAT     H2 2343   3.017   0.151   3.503  0.4537  0.0761  0.0258
  567WAT    EPW 2344   3.022   0.200   3.431  0.2173 -0.2178 -0.1936
  568WAT      O 2345   2.561   1.901   1.926  0.1094 -0.4064 -0.6600
  568WAT     H1 2346   2.484   1.943   1.963  0.0797 -2.5123  1.9205
  568WAT     H2 2347   2.544   1.807   1.935  2.9265 -0.9406 -0.0528
  568WAT    EPW 2348   2.549   1.894   1.932  0.4771 -0.7546 -0.2396
  569WAT      O 2349   2.692   3.503   1.017 -0.0602  1.0275  0.2347
  569WAT     H1 2350   2.698   3.522   1.110  0.3235  1.0458  0.2065
  569WAT     H2 2351   2.676   3.588   0.976 -0.0755  1.0418  0.2699
  569WAT    EPW 2352   2.690   3.517   1.024 -0.0116  1.0318  0.2356
  570WAT      O 2353   0.350   3.422   1.565 -0.8394  0.4067  0.3457
  570WAT     H1 2354   0.332   3.480   1.640 -1.3051  0.5572  0.1262
  570WAT     H2 2355   0.412   3.471   1.512 -2.2712  1.3504 -0.5470
  570WAT    EPW 2356   0.356   3.436   1.568 -1.0897  0.5510  0.1990
  571WAT      O 2357   1.188   0.397   2.896  0.0774 -0.3640 -0.6313
  571WAT     H1 2358   1.193   0.377   2.803 -0.5158 -2.5105 -0.2741
  571WAT     H2 2359   1.097   0.377   2.919 -0.1487  1.4458  0.1527
  571WAT    EPW 2360   1.176   0.391   2.887 -0.0307 -0.4084 -0.4808
  572WAT      O 2361   1.322   0.825   3.771 -0.1919  0.5036 -0.4201
  572WAT     H1 2362   1.256   0.893   3.785 -1.0218 -0.5567  1.0314
  572WAT     H2 2363   1.402   0.862   3.808 -0.5116  0.8979 -0.1089
  572WAT    EPW 2364   1.324   0.839   3.777 -0.3435  0.4158 -0.1876
  573WAT      O 2365   1.719   0.597   2.068 -0.4969  0.1629  0.1439
  573WAT     H1 2366   1.673   0.677   2.043  0.4065  1.0763  1.2445
  573WAT     H2 2367   1.660   0.555   2.131 -0.6029  0.3968  0.2027
  573WAT    EPW 2368   1.705   0.602   2.073 -0.3918  0.3142  0.2968
  574WAT      O 2369   2.839   2.926   0.238  0.1459  0.1580  0.2334
  574WAT     H1 2370   2.805   2.875   0.311 -1.9467  0.4947 -0.4442
  574WAT     H2 2371   2.860   2.860   0.171 -1.7830  0.0627 -0.3369
  574WAT    EPW 2372   2.838   2.910   0.238 -0.3845  0.1898  0.0688
  575WAT      O 2373   3.079   3.498   0.898 -0.1410  0.7282 -0.6877
  575WAT     H1 2374   3.163   3.467   0.864 -0.0366  0.9774 -0.6651
  575WAT     H2 2375   3.100   3.530   0.986 -0.6752 -1.2308  0.2037
  575WAT    EPW 2376   3.093   3.498   0.905 -0.1977  0.5027 -0.5672
  576WAT      O 2377   0.426   0.794   0.761 -0.4247  0.3461  0.3542
  576WAT     H1 2378   0.332   0.791   0.779 -0.2824  0.2236  1.1367
  576WAT     H2 2379   0.459   0.864   0.819 -0.0491  0.4364  0.0341
  576WAT    EPW 2380   0.418   0.803   0.771 -0.3564  0.3419  0.4152
  577WAT      O 2381   2.914   1.811   0.359  0.5827  0.4571 -0.2487
  577WAT     H1 2382   2.905   1.904   0.337  0.0039 -0.3924 -4.4503
  577WAT     H2 2383   2.997   1.806   0.406  1.8403  2.8501 -1.9708
  577WAT    EPW 2384   2.923   1.823   0.363  0.6722  0.6607 -1.0300
  578WAT      O 2385   2.734   1.110   0.133 -0.0949  0.3053  0.0252
  578WAT     H1 2386   2.768   1.142   0.050  1.9072  0.6829  0.9368
  578WAT     H2 2387   2.763   1.019   0.138 -1.6203 -0.2337 -0.3854
  578WAT    EPW 2388   2.742   1.103   0.123 -0.0320  0.2840  0.0913
  579WAT      O 2389   3.430   3.497   1.302 -0.1799 -0.2364 -0.4739
  579WAT     H1 2390   3.500   3.488   1.367  1.0112  0.0928 -1.6682
  579WAT     H2 2391   3.352   3.467   1.348  0.5121  0.4808  1.2865
  579WAT    EPW 2392   3.429   3.492   1.317  0.0685 -0.0984 -0.3993
  580WAT      O 2393   2.375   0.347   2.713  0.3903  0.0579  0.0834
  580WAT     H1 2394   2.384   0.407   2.787 -0.4100 -0.6977  0.8106
  580WAT     H2 2395   2.281   0.342   2.698  0.4910 -0.5359 -0.3722
  580WAT    EPW 2396   2.364   0.354   2.721  0.2980 -0.1201  0.1192
  581WAT      O 2397   2.399   1.186   0.307  0.1530  0.1486  0.2291
  581WAT     H1 2398   2.413   1.263   0.362  0.0316 -1.5917  2.8584
  581WAT     H2 2399   2.309   1.195   0.277  0.1807  1.0675  0.3694
  581WAT    EPW 2400   2.389   1.198   0.310  0.1406  0.0403  0.5944
  582WAT      O 2401   1.341   2.847   2.734 -0.0576  0.0700  0.0557
  582WAT     H1 2402   1.398   2.832   2.809  0.3725 -0.9606 -0.4664
  582WAT     H2 2403   1.347   2.941   2.718  0.0650  0.2624  1.1270
  582WAT    EPW 2404   1.349   2.858   2.742  0.0153 -0.0405  0.1282
  583WAT      O 2405   1.099   0.767   0.379  0.1024  0.3944  0.2888
  583WAT     H1 2406   1.015   0.811   0.389 -0.5219 -0.6368 -0.2245
  583WAT     H2 2407   1.113   0.762   0.284  0.7940  0.6446  0.3713
  583WAT    EPW 2408   1.090   0.772   0.368  0.1113  0.2914  0.2320
  584WAT      O 2409   1.231   3.434   2.852 -0.6165 -0.2386 -0.1184
  584WAT     H1 2410   1.210   3.442   2.946 -0.5753  0.9411 -0.1986
  584WAT     H2 2411   1.146   3.418   2.811 -1.4849  3.9827 -0.3748
  584WAT    EPW 2412   1.217   3.433   2.859 -0.7256  0.4738 -0.1628
  585WAT      O 2413   2.526   3.343   1.224  0.1949  0.4263  0.4168
  585WAT     H1 2414   2.442   3.314   1.259  0.6938 -1.9696 -0.1787
  585WAT     H2 2415   2.503   3.404   1.154 -0.9644  1.0886  1.3420
  585WAT    EPW 2416   2.512   3.347   1.220  0.1078  0.1977  0.4603
  586WAT      O 2417   2.415   3.773   0.413 -0.4017  0.6385  0.1345
  586WAT     H1 2418   2.480   3.755   0.480  0.3092  1.9147 -0.1890
  586WAT     H2 2419   2.349   3.705   0.425  0.3792  0.0535  1.2522
  586WAT    EPW 2420   2.414   3.762   0.423 -0.2049  0.7297  0.2393
  587WAT      O 2421   1.955   1.950   2.323  0.3332  0.2388 -0.6263
  587WAT     H1 2422   1.937   1.882   2.388  0.5344  1.9963  1.3399
  587WAT     H2 2423   2.051   1.960   2.324  0.2180  1.3885  0.0059
  587WAT    EPW 2424   1.965   1.942   2.332  0.3446  0.6223 -0.2836
  588WAT      O 2425   0.809   3.171   0.083  0.2056  0.1031 -0.4249
  588WAT     H1 2426   0.878   3.220   0.127  0.5685 -0.4930 -0.3189
  588WAT     H2 2427   0.751   3.143   0.155 -0.1366  0.5830 -0.5109
  588WAT    EPW 2428   0.810   3.173   0.098  0.2084  0.0878 -0.4222
  589WAT      O 2429   1.233   2.395   0.282  0.5115  0.5236 -0.3493
  589WAT     H1 2430   1.277   2.472   0.318  0.2928  0.3000  0.4246
  589WAT     H2 2431   1.150   2.429   0.248  0.4574  0.6542 -0.0964
  589WAT    EPW 2432   1.228   2.410   0.282  0.4755  0.5114 -0.2138
  590WAT      O 2433   2.471   2.933   3.205 -0.0801  0.1306  0.0850
  590WAT     H1 2434   2.549   2.887   3.172 -0.8291 -0.6486 -0.6594
  590WAT     H2 2435   2.397   2.880   3.174 -0.8793 -1.1262  3.6427
  590WAT    EPW 2436   2.471   2.920   3.196 -0.2843 -0.1380  0.4561
  591WAT      O 2437   1.573   4.145   3.765 -0.3012  0.3304  0.2189
  591WAT     H1 2438   1.596   4.178   3.852 -1.8375  1.3613  0.2828
  591WAT     H2 2439   1.569   4.223   3.710 -2.3134  0.1224 -0.0390
  591WAT    EPW 2440   1.575   4.160   3.770 -0.7692  0.4389  0.1933
  592WAT      O 2441   0.995   2.098   3.036 -0.1198 -0.4768  0.4785
  592WAT     H1 2442   1.037   2.140   2.961 -0.4952 -1.6214 -0.4109
  592WAT     H2 2443   1.050   2.122   3.111  0.2403  0.7228 -0.1424
  592WAT    EPW 2444   1.008   2.107   3.036 -0.1218 -0.4696  0.2793
  593WAT      O 2445   2.807   0.703   2.637  0.2934  0.8647 -0.3444
  593WAT     H1 2446   2.753   0.779   2.614 -1.3833 -0.2575 -0.2758
  593WAT     H2 2447   2.787   0.686   2.729  1.0138  0.6042 -0.2274
  593WAT    EPW 2448   2.797   0.711   2.646  0.1673  0.6824 -0.3199
  594WAT      O 2449   2.348   1.133   3.646  0.2186 -0.5064  0.0089
  594WAT     H1 2450   2.269   1.082   3.628 -1.5177  2.2836 -1.0806
  594WAT     H2 2451   2.355   1.193   3.572  0.6971  2.3385  2.1519
  594WAT    EPW 2452   2.338   1.134   3.634  0.0527  0.2368  0.1479
  595WAT      O 2453   0.536   2.505   2.944 -0.2226 -0.1597 -0.1837
  595WAT     H1 2454   0.550   2.492   3.038  0.1682  0.5391 -0.1426
  595WAT     H2 2455   0.578   2.430   2.903  0.6983  0.1742  0.1343
  595WAT    EPW 2456   0.543   2.493   2.951 -0.0496 -0.0235 -0.1363
  596WAT      O 2457   0.704   1.798   1.617 -0.2535 -0.2470  0.6102
  596WAT     H1 2458   0.712   1.814   1.711  1.8442 -2.4158  0.9099
  596WAT     H2 2459   0.723   1.705   1.607  1.6792  0.3092 -2.1455
  596WAT    EPW 2460   0.707   1.788   1.628  0.2781 -0.4597  0.2862
  597WAT      O 2461   2.372   4.089   1.993 -0.3188 -0.3074  0.0366
  597WAT     H1 2462   2.352   4.065   2.083 -0.0974  0.8387  0.3997
  597WAT     H2 2463   2.316   4.164   1.974  1.3825  1.0334  0.0614
  597WAT    EPW 2464   2.362   4.096   2.002 -0.0652  0.0206  0.0878
  598WAT      O 2465   0.118   3.784   0.101  0.3930 -0.3388 -0.0391
  598WAT     H1 2466   0.188   3.839   0.066 -1.1703  0.8844 -1.4111
  598WAT     H2 2467   0.059   3.771   0.027 -0.2754 -2.2797  0.7838
  598WAT    EPW 2468   0.119   3.790   0.087  0.0986 -0.4335 -0.1115
  599WAT      O 2469   2.424   0.190   1.273 -0.1428  0.5884 -0.0873
  599WAT     H1 2470   2.373   0.132   1.216 -1.7837  0.4937  1.4065
  599WAT     H2 2471   2.378   0.274   1.269  0.3765  0.8945  0.2554
  599WAT    EPW 2472   2.412   0.193   1.265 -0.2908  0.6163  0.1549
  600WAT      O 2473   2.780   2.670   0.428 -0.0096 -0.1324 -0.4551
  600WAT     H1 2474   2.779   2.673   0.523  1.8769  3.8167 -0.3510
  600WAT     H2 2475   2.690   2.651   0.403 -0.4366 -1.8210  2.0329
  600WAT    EPW 2476   2.768   2.668   0.437  0.1829  0.1658 -0.1133
  601WAT      O 2477   2.758   2.310   1.031 -0.4282 -0.3070  0.0835
  601WAT     H1 2478   2.700   2.383   1.051  1.0215  0.2260  2.7879
  601WAT     H2 2479   2.838   2.351   0.998  0.3470 -0.6457  1.4912
  601WAT    EPW 2480   2.761   2.325   1.029 -0.1347 -0.2814  0.6259
  602WAT      O 2481   3.155   2.528   2.694 -0.1749 -0.2361  0.0004
  602WAT     H1 2482   3.076   2.547   2.643  1.0318  2.4378 -1.0423
  602WAT     H2 2483   3.168   2.606   2.747  2.3047 -0.1715 -0.6073
  602WAT    EPW 2484   3.146   2.541   2.694  0.3113  0.1251 -0.2173
  603WAT      O 2485   1.923   1.931   2.043 -0.3467 -0.6978 -0.3624
  603WAT     H1 2486   1.927   2.024   2.019 -0.5147 -0.1800  1.4597
  603WAT     H2 2487   1.953   1.929   2.134  0.1988 -2.5170 -0.5614
  603WAT    EPW 2488   1.927   1.943   2.052 -0.2969 -0.8695 -0.1483
  604WAT      O 2489   1.934   1.092   0.135 -0.6824 -0.1082 -0.0642
  604WAT     H1 2490   1.918   1.085   0.229 -1.2444 -2.1991 -0.2632
  604WAT     H2 2491   1.917   1.184   0.114  0.2459  0.5888  1.9925
  604WAT    EPW 2492   1.930   1.103   0.144 -0.6341 -0.2921  0.1808
  605WAT      O 2493   1.868   1.074   1.686  0.6275  0.3346  0.6648
  605WAT     H1 2494   1.812   1.149   1.667  0.5892  0.0003 -0.6150
  605WAT     H2 2495   1.808   1.001   1.700  0.5940  0.7387  3.1732
  605WAT    EPW 2496   1.853   1.074   1.686  0.6180  0.3438  0.8269
  606WAT      O 2497   3.402   1.369   0.955 -0.1385 -0.6675 -0.0296
  606WAT     H1 2498   3.434   1.306   1.020  0.3673 -0.5665 -0.1792
  606WAT     H2 2499   3.430   1.334   0.871  0.9307  0.2059 -0.0582
  606WAT    EPW 2500   3.410   1.356   0.953  0.0692 -0.5390 -0.0531
  607WAT      O 2501   1.698   0.097   0.817  0.1360 -0.2135 -0.5721
  607WAT     H1 2502   1.766   0.139   0.766  0.0409  1.9618  0.9310
  607WAT     H2 2503   1.735   0.090   0.905 -0.8003 -0.9531 -0.2205
  607WAT    EPW 2504   1.712   0.102   0.822 -0.0001 -0.0241 -0.3274
  608WAT      O 2505   3.508   3.288   0.771  0.0759 -0.2947  0.3064
  608WAT     H1 2506   3.436   3.275   0.709 -0.4436 -1.5633  1.1518
  608WAT     H2 2507   3.567   3.350   0.726 -0.3555 -1.0532 -1.3782
  608WAT    EPW 2508   3.506   3.295   0.757 -0.0495 -0.5620  0.1957
  609WAT      O 2509   3.316   1.664   3.672 -0.4039  0.1378 -0.4842
  609WAT     H1 2510   3.348   1.632   3.587  1.4452 -0.0690  0.2427
  609WAT     H2 2511   3.394   1.665   3.728 -1.4656  0.8613  1.0454
  609WAT    EPW 2512   3.330   1.660   3.668 -0.3001  0.2059 -0.1866
  610WAT      O 2513   2.212   2.020   0.805  0.2859  0.3609  0.1109
  610WAT     H1 2514   2.273   2.088   0.777 -1.4999  1.1949 -2.1158
  610WAT     H2 2515   2.173   2.054   0.886 -1.1564  2.4939 -1.3688
  610WAT    EPW 2516   2.215   2.033   0.812 -0.1399  0.7522 -0.3779
  611WAT      O 2517   2.251   1.230   3.381 -0.2061 -0.6066  0.4335
  611WAT     H1 2518   2.231   1.324   3.379  0.0846 -0.5496 -0.0054
  611WAT     H2 2519   2.170   1.189   3.411 -1.0027 -0.3873 -1.3136
  611WAT    EPW 2520   2.238   1.237   3.385 -0.2728 -0.5701  0.1452
  612WAT      O 2521   2.010   3.305   2.476 -0.6556 -0.0055 -0.2480
  612WAT     H1 2522   2.048   3.382   2.520  2.2798 -1.1668 -0.5082
  612WAT     H2 2523   1.946   3.341   2.415 -3.2089  1.8445  3.1670
  612WAT    EPW 2524   2.007   3.320   2.474 -0.6052  0.0853  0.1681
  613WAT      O 2525   2.280   0.840   2.982  0.5451 -0.0006 -0.0374
  613WAT     H1 2526   2.316   0.832   3.070 -0.1175  0.4633  0.2866
  613WAT     H2 2527   2.259   0.933   2.973 -0.2410 -0.1950 -0.3332
  613WAT    EPW 2528   2.282   0.851   2.992  0.3541  0.0350 -0.0336
  614WAT      O 2529   3.710   3.307   0.392 -0.0469  0.1948 -0.0166
  614WAT     H1 2530   3.617   3.296   0.377 -0.3991  1.3578  1.1319
  614WAT     H2 2531   3.737   3.372   0.327 -0.3334  0.8589  0.5168
  614WAT    EPW 2532   3.702   3.315   0.381 -0.1312  0.4358  0.2052
  615WAT      O 2533   2.044   2.274   1.647 -0.3178  0.4851  0.2549
  615WAT     H1 2534   2.085   2.361   1.644  2.1267 -0.6115 -1.6911
  615WAT     H2 2535   2.015   2.258   1.557 -0.5846 -0.7891  0.5488
  615WAT    EPW 2536   2.045   2.284   1.635 -0.0306  0.1724  0.0370
  616WAT      O 2537   2.043   1.263   2.239  0.3685  0.0647 -0.6037
  616WAT     H1 2538   1.954   1.291   2.262  0.2425 -0.1949 -0.7825
  616WAT     H2 2539   2.034   1.172   2.214  1.0716 -0.7436  1.7837
  616WAT    EPW 2540   2.030   1.255   2.239  0.4446 -0.0762 -0.3124
  617WAT      O 2541   2.187   2.481   0.284  0.0159 -0.3394  0.2078
  617WAT     H1 2542   2.259   2.419   0.273 -0.0547 -0.4028  0.0863
  617WAT     H2 2543   2.144   2.454   0.365  0.3923 -0.0276  0.5176
  617WAT    EPW 2544   2.191   2.469   0.293  0.0562 -0.3066  0.2327
  618WAT      O 2545   1.732   2.826   2.676  0.0182 -0.4932 -0.6379
  618WAT     H1 2546   1.659   2.787   2.629 -1.4283  0.9691  0.3128
  618WAT     H2 2547   1.728   2.919   2.654  1.4928 -0.3554 -0.4269
  618WAT    EPW 2548   1.722   2.833   2.667  0.0219 -0.2821 -0.4846
  619WAT      O 2549   0.495   4.138   1.426  0.3806  0.3139 -0.2523
  619WAT     H1 2550   0.441   4.217   1.428 -0.5803 -0.0309 -4.1063
  619WAT     H2 2551   0.547   4.142   1.506 -2.0312  3.0588  1.3806
  619WAT    EPW 2552   0.495   4.149   1.437 -0.0643  0.6305 -0.5453
  620WAT      O 2553   2.115   0.506   1.947  1.1750 -0.1161  0.4041
  620WAT     H1 2554   2.022   0.483   1.945  0.7533  1.2404  2.0059
  620WAT     H2 2555   2.160   0.426   1.920 -0.4939 -0.2569 -2.2298
  620WAT    EPW 2556   2.109   0.492   1.943  0.8993  0.0442  0.2679
  621WAT      O 2557   3.456   3.030   1.684  0.5075  0.2113 -0.0356
  621WAT     H1 2558   3.485   3.075   1.763  0.5864 -0.1143  0.1244
  621WAT     H2 2559   3.477   3.091   1.613 -0.6818  1.0360  0.2861
  621WAT    EPW 2560   3.463   3.044   1.685  0.3610  0.2772  0.0279
  622WAT      O 2561   2.573   1.040   0.482 -0.4227 -0.0166  0.3603
  622WAT     H1 2562   2.641   1.102   0.455 -1.8198  0.8210 -1.4604
  622WAT     H2 2563   2.493   1.074   0.442 -1.6491 -1.7749  1.2184
  622WAT    EPW 2564   2.572   1.053   0.473 -0.7687 -0.1380  0.2333
  623WAT      O 2565   0.958   4.078   3.212 -0.1898 -0.0404  0.0511
  623WAT     H1 2566   0.924   4.017   3.277  0.3479 -0.2679  0.1248
  623WAT     H2 2567   0.932   4.165   3.243  0.1410 -0.1417  0.6104
  623WAT    EPW 2568   0.950   4.081   3.225 -0.0752 -0.0838  0.1346
  624WAT      O 2569   0.070   2.397   1.210  0.1002 -0.0096  0.1518
  624WAT     H1 2570   0.062   2.372   1.302  0.0660  0.5871  0.3141
  624WAT     H2 2571   0.164   2.400   1.195  0.1081  0.1066  0.2255
  624WAT    EPW 2572   0.081   2.394   1.220  0.0967  0.0844  0.1830
  625WAT      O 2573   2.826   0.030   0.558  0.0540 -0.0831  0.0129
  625WAT     H1 2574   2.809   0.113   0.601 -0.4385  0.2672 -0.8352
  625WAT     H2 2575   2.910   0.042   0.513  1.4144 -0.9917  2.1651
  625WAT    EPW 2576   2.835   0.042   0.558  0.1685 -0.1567  0.1849
  626WAT      O 2577   1.839   0.064   1.100 -0.1259 -0.0162  0.7747
  626WAT     H1 2578   1.774   0.107   1.155  0.7023  0.0761  1.7107
  626WAT     H2 2579   1.898   0.134   1.073  0.7602 -0.4177  1.6318
  626WAT    EPW 2580   1.838   0.079   1.103  0.1002 -0.0570  1.0112
  627WAT      O 2581   0.923   1.491   1.386 -0.1348 -0.2824 -0.3980
  627WAT     H1 2582   0.900   1.579   1.358 -0.4342 -0.2240  0.0252
  627WAT     H2 2583   0.964   1.503   1.472 -3.7232 -0.8183  1.6211
  627WAT    EPW 2584   0.925   1.504   1.394 -0.6476 -0.3454 -0.0759
  628WAT      O 2585   0.067   2.056   0.163  0.3051  0.5401 -0.0992
  628WAT     H1 2586  -0.024   2.047   0.135  0.4412 -0.4161 -0.2521
  628WAT     H2 2587   0.063   2.053   0.259  0.0278  2.0474 -0.0384
  628WAT    EPW 2588   0.054   2.055   0.172  0.2865  0.6128 -0.1113
  629WAT      O 2589   1.358   0.605   2.985 -0.2468 -0.0454 -0.7329
  629WAT     H1 2590   1.278   0.560   2.959 -0.3687  0.2813 -0.9251
  629WAT     H2 2591   1.417   0.595   2.911 -1.0356  1.9775 -1.7139
  629WAT    EPW 2592   1.355   0.598   2.972 -0.3669  0.2645 -0.8877
  630WAT      O 2593   1.567   2.288   2.686  0.0122  0.0444 -0.0456
  630WAT     H1 2594   1.578   2.357   2.751 -1.3194 -0.2761  0.5550
  630WAT     H2 2595   1.651   2.284   2.640  1.0078  0.2409  1.6884
  630WAT    EPW 2596   1.579   2.296   2.688 -0.0321  0.0280  0.2623
  631WAT      O 2597   2.042   1.159   2.746  0.3439 -0.4936 -0.1005
  631WAT     H1 2598   2.087   1.138   2.828 -0.3507  1.1861  0.7564
  631WAT     H2 2599   1.989   1.081   2.727  0.5469 -0.9208  1.0270
  631WAT    EPW 2600   2.041   1.146   2.754  0.2791 -0.3284  0.1612
  632WAT      O 2601   3.274   0.224   0.593  0.0012 -0.1425 -0.1030
  632WAT     H1 2602   3.294   0.297   0.652  2.2166 -0.0219 -0.9168
  632WAT     H2 2603   3.332   0.153   0.622  1.9352  0.2558 -2.7030
  632WAT    EPW 2604   3.284   0.224   0.605  0.5485 -0.0741 -0.5533
  633WAT      O 2605   1.246   3.658   1.459  0.4237 -0.1994 -0.4002
  633WAT     H1 2606   1.229   3.598   1.387  2.1189  0.6063 -1.5508
  633WAT     H2 2607   1.288   3.604   1.526 -2.1308 -1.1851  0.5096
  633WAT    EPW 2608   1.249   3.643   1.458  0.3104 -0.2231 -0.4320
  634WAT      O 2609   2.951   0.364   2.041  0.0828 -0.5196  0.2281
  634WAT     H1 2610   2.898   0.316   2.104  1.1285 -1.9354  0.0641
  634WAT     H2 2611   2.929   0.324   1.956 -0.7706  0.8803 -0.2586
  634WAT    EPW 2612   2.941   0.352   2.038  0.1082 -0.5217  0.1422
  635WAT      O 2613   1.170   2.914   1.469  0.3531 -0.2153 -0.0040
  635WAT     H1 2614   1.123   2.997   1.461  2.8497  1.1493 -1.9401
  635WAT     H2 2615   1.101   2.848   1.476 -1.7519  1.8703  0.0182
  635WAT    EPW 2616   1.154   2.916   1.469  0.4047  0.2398 -0.2564
  636WAT      O 2617   3.611   3.013   3.463 -0.0979  0.6904 -0.3053
  636WAT     H1 2618   3.545   3.051   3.405 -0.4924  0.1453 -0.2206
  636WAT     H2 2619   3.680   2.983   3.404 -0.0160  1.0786 -0.4095
  636WAT    EPW 2620   3.611   3.014   3.447 -0.1392  0.6697 -0.3079
  637WAT      O 2621   2.256   1.638   3.271  0.3037 -0.1579  0.5072
  637WAT     H1 2622   2.250   1.621   3.365  0.9928  0.3360  0.6506
  637WAT     H2 2623   2.167   1.627   3.239 -0.1689  0.8079  1.4197
  637WAT    EPW 2624   2.243   1.634   3.279  0.3323  0.0346  0.6465
  638WAT      O 2625   2.429   3.188   1.576  0.0015 -0.1188 -0.3251
  638WAT     H1 2626   2.494   3.247   1.614  0.7231 -1.8050  1.1923
  638WAT     H2 2627   2.357   3.246   1.550  0.1984  1.3458  2.0683
  638WAT    EPW 2628   2.428   3.203   1.577  0.1226 -0.1480  0.1907
  639WAT      O 2629   1.110   2.128   1.888  0.1083  0.3429  0.1582
  639WAT     H1 2630   1.049   2.202   1.882  1.4871  2.0973  4.2093
  639WAT     H2 2631   1.057   2.056   1.920 -0.7812  0.2270 -1.4791
  639WAT    EPW 2632   1.095   2.128   1.892  0.1728  0.5590  0.4766
  640WAT      O 2633   1.132   1.060   1.738  0.0817 -0.3648 -0.0168
  640WAT     H1 2634   1.157   1.142   1.781  1.2162 -0.3009 -0.7711
  640WAT     H2 2635   1.041   1.046   1.765 -0.1252  1.1301  0.1417
  640WAT    EPW 2636   1.123   1.069   1.748  0.2040 -0.1592 -0.0954
  641WAT      O 2637   3.106   0.238   2.370 -0.6553 -0.4922 -0.4193
  641WAT     H1 2638   3.027   0.256   2.319 -0.7409  0.4441  0.0220
  641WAT     H2 2639   3.177   0.249   2.307 -0.8861 -1.8138 -0.9379
  641WAT    EPW 2640   3.105   0.242   2.355 -0.6971 -0.5430 -0.4295
  642WAT      O 2641   2.873   2.247   1.343 -0.0972  0.6396  1.0219
  642WAT     H1 2642   2.786   2.277   1.319  0.6040  1.1914 -1.0354
  642WAT     H2 2643   2.886   2.279   1.432 -1.9778  0.5305  1.3643
  642WAT    EPW 2644   2.863   2.255   1.352 -0.2527  0.6980  0.7957
  643WAT      O 2645   2.491   3.808   3.494 -0.1417 -0.4277  0.0574
  643WAT     H1 2646   2.405   3.819   3.455 -0.8797  1.2684  1.9872
  643WAT     H2 2647   2.527   3.730   3.451 -2.6505 -1.2458 -0.7422
  643WAT    EPW 2648   2.485   3.799   3.483 -0.5699 -0.3119  0.2065
  644WAT      O 2649   2.586   3.633   2.538 -0.3666 -0.4182  0.3674
  644WAT     H1 2650   2.619   3.700   2.599 -1.9206  0.8557 -0.1072
  644WAT     H2 2651   2.645   3.559   2.550  0.9953  0.7682  1.4552
  644WAT    EPW 2652   2.598   3.632   2.548 -0.3920 -0.0937  0.4483
  645WAT      O 2653   1.698   2.162   1.529  0.0120 -0.3821  0.0159
  645WAT     H1 2654   1.777   2.114   1.502  0.0247 -0.1320 -0.4162
  645WAT     H2 2655   1.676   2.126   1.614  0.2558 -0.8682 -0.1212
  645WAT    EPW 2656   1.706   2.151   1.536  0.0458 -0.4132 -0.0592
  646WAT      O 2657   3.667   2.214   3.424  0.0428  0.3810 -0.1994
  646WAT     H1 2658   3.640   2.256   3.506 -0.1981 -0.8773  0.3893
  646WAT     H2 2659   3.584   2.190   3.381  0.1808  0.3278 -0.4387
  646WAT    EPW 2660   3.652   2.216   3.429  0.0292  0.2080 -0.1533
  647WAT      O 2661   0.526   1.800   2.546 -0.1675 -0.7069 -0.3152
  647WAT     H1 2662   0.551   1.773   2.634  0.7670 -0.5029 -0.5002
  647WAT     H2 2663   0.456   1.864   2.559  2.0277  1.6896  0.4953
  647WAT    EPW 2664   0.520   1.805   2.559  0.2453 -0.3639 -0.2327
  648WAT      O 2665   2.124   3.675   0.870 -0.0894 -0.4821  0.6727
  648WAT     H1 2666   2.167   3.657   0.786 -1.5889 -0.0863 -0.2259
  648WAT     H2 2667   2.163   3.757   0.900 -1.3665  0.8188 -1.0052
  648WAT    EPW 2668   2.135   3.684   0.863 -0.4556 -0.2583  0.3329
  649WAT      O 2669   0.404   3.564   1.941 -0.0509  0.0073 -0.4896
  649WAT     H1 2670   0.347   3.603   1.874  0.5542 -0.5056 -1.3147
  649WAT     H2 2671   0.493   3.578   1.909  0.4209  2.0785  1.4706
  649WAT    EPW 2672   0.408   3.571   1.928  0.0912  0.2128 -0.3399
  650WAT      O 2673   2.141   4.299   0.516  0.4187  0.2471 -0.3636
  650WAT     H1 2674   2.146   4.220   0.570 -2.1789 -0.4887 -1.0834
  650WAT     H2 2675   2.189   4.365   0.567 -0.2649 -0.9006  1.9344
  650WAT    EPW 2676   2.148   4.298   0.530 -0.0141 -0.0013 -0.1554
  651WAT      O 2677   2.885   2.036   0.996 -0.9005  0.5128 -0.3469
  651WAT     H1 2678   2.979   2.047   0.981 -0.6952 -1.2134 -0.5583
  651WAT     H2 2679   2.862   2.107   1.055  0.7256  0.4844  0.3973
  651WAT    EPW 2680   2.895   2.047   1.002 -0.6589  0.2814 -0.2766
  652WAT      O 2681   2.141   4.100   2.232  0.2116  0.1031 -0.9142
  652WAT     H1 2682   2.087   4.178   2.220  0.3134  0.0508 -1.7133
  652WAT     H2 2683   2.114   4.066   2.318 -0.8596  0.2167 -1.1890
  652WAT    EPW 2684   2.130   4.106   2.242  0.0837  0.1112 -1.0559
  653WAT      O 2685   2.235   2.187   1.044 -0.1185  1.1842  0.4092
  653WAT     H1 2686   2.235   2.203   1.138  0.0188 -0.9294  0.7991
  653WAT     H2 2687   2.321   2.150   1.026  0.5558  3.1887 -0.9096
  653WAT    EPW 2688   2.246   2.184   1.054 -0.0115  1.1698  0.2867
  654WAT      O 2689   2.855   2.652   2.063  0.0275  0.5065 -0.1661
  654WAT     H1 2690   2.901   2.634   2.146  0.9894 -1.2243 -1.0176
  654WAT     H2 2691   2.897   2.594   2.000 -3.2820 -1.1553 -1.0619
  654WAT    EPW 2692   2.867   2.642   2.066 -0.2821  0.0590 -0.3966
  655WAT      O 2693   1.951   1.050   0.768 -0.3357  0.0178 -0.5800
  655WAT     H1 2694   1.883   1.067   0.835  1.0743  0.3119  0.8365
  655WAT     H2 2695   1.992   1.135   0.754  1.4198 -0.6116  0.5084
  655WAT    EPW 2696   1.947   1.063   0.775  0.0818 -0.0264 -0.2496
  656WAT      O 2697   2.868   1.160   3.196  0.1271 -0.0034 -0.1877
  656WAT     H1 2698   2.781   1.197   3.208  0.4842  0.8177 -0.0508
  656WAT     H2 2699   2.915   1.225   3.145  0.7836 -0.2512  0.0874
  656WAT    EPW 2700   2.863   1.173   3.191  0.2608  0.0722 -0.1334
  657WAT      O 2701   3.368   3.531   0.888  0.9515 -0.1983  0.3307
  657WAT     H1 2702   3.392   3.454   0.939  2.7204  0.2414  0.2377
  657WAT     H2 2703   3.451   3.577   0.874  0.0682  1.2589 -0.3716
  657WAT    EPW 2704   3.382   3.527   0.893  1.0683  0.0519  0.2258
  658WAT      O 2705   2.699   4.095   0.877 -0.1127  0.1567 -0.0678
  658WAT     H1 2706   2.741   4.027   0.929  1.3117 -1.2812 -2.9020
  658WAT     H2 2707   2.752   4.173   0.893  0.5366 -0.3511  0.2912
  658WAT    EPW 2708   2.711   4.096   0.886  0.1608 -0.0999 -0.3943
  659WAT      O 2709   2.471   1.880   2.194 -0.0072 -0.3266  0.1400
  659WAT     H1 2710   2.489   1.828   2.116  2.0760  0.1285  0.2541
  659WAT     H2 2711   2.558   1.902   2.229 -0.8588 -0.3922  2.5089
  659WAT    EPW 2712   2.485   1.876   2.189  0.1552 -0.2752  0.4675
  660WAT      O 2713   2.689   4.347   1.905 -0.0656 -0.4128  0.2835
  660WAT     H1 2714   2.691   4.420   1.843  0.7201 -1.1552 -0.6017
  660WAT     H2 2715   2.622   4.372   1.969 -0.0302  0.9326 -0.1635
  660WAT    EPW 2716   2.681   4.360   1.905  0.0427 -0.3333  0.1078
  661WAT      O 2717   1.406   2.531   2.807  0.2613 -0.4232  0.0205
  661WAT     H1 2718   1.327   2.568   2.768 -0.2065 -0.5585  0.8060
  661WAT     H2 2719   1.478   2.581   2.768 -0.2623  0.2207 -0.1449
  661WAT    EPW 2720   1.405   2.543   2.797  0.1305 -0.3561  0.1023
  662WAT      O 2721   3.591   3.467   1.538 -0.6907 -0.6463 -0.2737
  662WAT     H1 2722   3.648   3.543   1.532 -0.2652 -0.7522  1.8061
  662WAT     H2 2723   3.532   3.487   1.610 -0.2588 -2.4711  0.6444
  662WAT    EPW 2724   3.590   3.479   1.547 -0.5776 -0.9010  0.1217
  663WAT      O 2725   3.517   3.941   3.606 -0.3585  0.6000 -0.0314
  663WAT     H1 2726   3.463   4.009   3.564 -0.9557  1.2235  1.6457
  663WAT     H2 2727   3.598   3.986   3.628  0.2341  0.0866 -1.1079
  663WAT    EPW 2728   3.520   3.956   3.603 -0.3591  0.6145  0.0478
  664WAT      O 2729   1.206   2.897   1.758  0.3652  0.0735  0.6572
  664WAT     H1 2730   1.260   2.830   1.799 -1.9483 -2.4088 -0.1241
  664WAT     H2 2731   1.215   2.881   1.664 -1.3573 -0.1210  0.4984
  664WAT    EPW 2732   1.215   2.886   1.751 -0.1671 -0.2796  0.5332
  665WAT      O 2733   3.501   3.960   0.836 -0.1656 -0.6634 -0.4339
  665WAT     H1 2734   3.419   3.999   0.868  0.0057 -1.8750  1.6706
  665WAT     H2 2735   3.570   4.012   0.877  0.0957 -0.8389 -0.6517
  665WAT    EPW 2736   3.499   3.972   0.846 -0.1085 -0.8463 -0.1850
  666WAT      O 2737   1.793   3.619   3.429  0.1438  0.3686  0.5010
  666WAT     H1 2738   1.700   3.601   3.444  0.2291 -0.7917 -0.2766
  666WAT     H2 2739   1.799   3.714   3.430 -1.6053  0.6313 -2.4885
  666WAT    EPW 2740   1.782   3.629   3.431 -0.0756  0.2502  0.0042
  667WAT      O 2741   1.621   1.510   2.082  0.0378  0.0975  0.3961
  667WAT     H1 2742   1.596   1.537   1.994  0.0804  0.7474  0.5713
  667WAT     H2 2743   1.636   1.416   2.076  0.8357  0.2691 -0.4688
  667WAT    EPW 2744   1.620   1.501   2.070  0.1487  0.2059  0.3051
  668WAT      O 2745   0.497   2.990   0.654  0.5596 -0.2721 -0.7342
  668WAT     H1 2746   0.562   3.055   0.682 -0.9446  0.9474  0.0714
  668WAT     H2 2747   0.467   3.022   0.570  0.9272 -0.7942 -1.0684
  668WAT    EPW 2748   0.502   3.003   0.647  0.4097 -0.1801 -0.6720
  669WAT      O 2749   0.444   1.982   3.157 -0.0554  0.0938 -0.3280
  669WAT     H1 2750   0.470   2.051   3.217 -0.0896 -0.6805  0.6039
  669WAT     H2 2751   0.487   2.005   3.074  3.1238 -0.7242  0.9248
  669WAT    EPW 2752   0.453   1.994   3.154  0.3594 -0.1163 -0.0399
  670WAT      O 2753   3.717   1.133   2.221 -0.2430  0.4927  0.1178
  670WAT     H1 2754   3.784   1.090   2.274 -0.7209 -0.6101 -0.1239
  670WAT     H2 2755   3.637   1.084   2.240 -0.5472  0.4359 -1.1716
  670WAT    EPW 2756   3.715   1.121   2.230 -0.3461  0.3398 -0.0841
  671WAT      O 2757   3.164   2.364   2.939 -0.6223 -0.2565 -0.1313
  671WAT     H1 2758   3.183   2.412   2.859 -0.9230 -1.3165 -0.8596
  671WAT     H2 2759   3.235   2.389   2.999  0.8364 -1.0497 -1.4381
  671WAT    EPW 2760   3.176   2.374   2.937 -0.4696 -0.5009 -0.3997
  672WAT      O 2761   0.382   2.493   3.670 -0.6084 -0.2615  0.4421
  672WAT     H1 2762   0.333   2.571   3.696 -1.0534 -0.4380  0.1326
  672WAT     H2 2763   0.447   2.482   3.740  0.1106  0.9481 -0.0123
  672WAT    EPW 2764   0.384   2.502   3.683 -0.5723 -0.1252  0.3414
  673WAT      O 2765   2.466   1.694   0.609  0.1130  0.5826 -0.4744
  673WAT     H1 2766   2.553   1.727   0.588 -0.2624  1.9613  0.0693
  673WAT     H2 2767   2.459   1.699   0.704 -0.0277 -0.9461 -0.3750
  673WAT    EPW 2768   2.476   1.699   0.618  0.0449  0.5628 -0.3896
  674WAT      O 2769   2.695   2.821   2.318 -0.7660  0.0799 -0.2750
  674WAT     H1 2770   2.700   2.726   2.322  0.0447  0.0826 -0.9810
  674WAT     H2 2771   2.778   2.848   2.277 -0.4218  1.1661  1.0526
  674WAT    EPW 2772   2.707   2.812   2.313 -0.6137  0.2235 -0.1930
  675WAT      O 2773   1.989   2.697   3.531  0.2984 -0.2398 -0.3348
  675WAT     H1 2774   2.008   2.701   3.625 -0.8591 -1.0088 -0.0483
  675WAT     H2 2775   2.014   2.608   3.505 -0.8201 -0.5512 -0.4020
  675WAT    EPW 2776   1.994   2.686   3.540 -0.0018 -0.3823 -0.3059
  676WAT      O 2777   3.224   0.711   0.520 -0.0344  0.1093 -0.2092
  676WAT     H1 2778   3.246   0.706   0.427 -0.3223  0.7468 -0.3166
  676WAT     H2 2779   3.173   0.631   0.537 -1.0370  0.5893 -0.8938
  676WAT    EPW 2780   3.220   0.700   0.510 -0.2046  0.2567 -0.3136
  677WAT      O 2781   2.661   0.576   0.083 -0.1255  0.2643  0.0663
  677WAT     H1 2782   2.630   0.546  -0.002  0.7129  2.0886 -0.9354
  677WAT     H2 2783   2.583   0.615   0.124 -0.3762 -0.0063 -0.1441
  677WAT    EPW 2784   2.646   0.577   0.077 -0.0480  0.4692 -0.0935
  678WAT      O 2785   3.412   4.243   0.384  0.6404 -0.0411 -0.1958
  678WAT     H1 2786   3.443   4.175   0.443  0.7619 -0.8889 -1.2088
  678WAT     H2 2787   3.490   4.298   0.368  0.3966  0.7373  1.1027
  678WAT    EPW 2788   3.427   4.242   0.390  0.6243 -0.0503 -0.1582
  679WAT      O 2789   2.389   3.109   3.410  0.3596  0.1524 -0.2804
  679WAT     H1 2790   2.433   3.051   3.348 -0.8039 -0.4327 -0.5827
  679WAT     H2 2791   2.313   3.060   3.439  0.6074  0.6241  1.2446
  679WAT    EPW 2792   2.385   3.095   3.406  0.2388  0.1374 -0.1191
  680WAT      O 2793   0.684   1.205   3.408  0.1957 -0.1008  0.4647
  680WAT     H1 2794   0.652   1.129   3.359 -0.4494  0.5853 -0.1831
  680WAT     H2 2795   0.777   1.210   3.384 -0.1959  0.4633 -1.0204
  680WAT    EPW 2796   0.692   1.195   3.398  0.0590  0.0641  0.1834
  681WAT      O 2797   2.583   0.537   1.350  0.4731  0.2843 -0.3112
  681WAT     H1 2798   2.656   0.558   1.408  0.2703  0.1805 -0.0183
  681WAT     H2 2799   2.566   0.444   1.365 -0.2459  0.4974  0.2127
  681WAT    EPW 2800   2.591   0.527   1.359  0.3515  0.2987 -0.2035
  682WAT      O 2801   1.761   0.173   2.370 -0.5404 -0.0500 -0.4154
  682WAT     H1 2802   1.807   0.205   2.292 -1.1283  0.6366 -0.4888
  682WAT     H2 2803   1.720   0.091   2.341  1.1615 -1.0329 -0.1595
  682WAT    EPW 2804   1.762   0.166   2.356 -0.3935 -0.0890 -0.3913
  683WAT      O 2805   1.562   0.958   2.359 -0.2583  0.3168  0.5418
  683WAT     H1 2806   1.536   0.939   2.449 -2.3760 -0.5272 -0.1831
  683WAT     H2 2807   1.642   0.908   2.346 -1.4448 -1.8697  1.1261
  683WAT    EPW 2808   1.569   0.949   2.370 -0.6941 -0.0829  0.5232
  684WAT      O 2809   1.655   2.534   1.080  0.2738 -0.1143  0.1886
  684WAT     H1 2810   1.705   2.483   1.143 -0.2990 -1.7574 -0.6403
  684WAT     H2 2811   1.706   2.531   0.999  1.0423  2.0413  0.5067
  684WAT    EPW 2812   1.668   2.527   1.077  0.2996 -0.0467  0.1212
  685WAT      O 2813   0.340   3.495   3.404 -0.2392  0.3470 -0.4610
  685WAT     H1 2814   0.430   3.473   3.378 -0.2196 -0.9254  0.6003
  685WAT     H2 2815   0.290   3.491   3.323  0.1273 -1.8765 -0.6315
  685WAT    EPW 2816   0.345   3.492   3.390 -0.1882 -0.1141 -0.3435
  686WAT      O 2817   2.690   2.860   1.844 -0.2664  0.2307  0.1613
  686WAT     H1 2818   2.629   2.838   1.914  0.0646 -1.8986 -0.1272
  686WAT     H2 2819   2.693   2.781   1.790  0.3337  1.4138 -1.6318
  686WAT    EPW 2820   2.683   2.846   1.846 -0.1436  0.1059 -0.1133
  687WAT      O 2821   2.972   0.354   1.466  0.4414  0.2811  0.3193
  687WAT     H1 2822   2.965   0.448   1.478 -1.0623  0.3664 -0.9617
  687WAT     H2 2823   3.027   0.343   1.388  0.3835  0.0966  0.3027
  687WAT    EPW 2824   2.979   0.365   1.457  0.2354  0.2680  0.1481
  688WAT      O 2825   3.197   4.059   2.544 -0.0105  0.3609 -0.2505
  688WAT     H1 2826   3.164   4.036   2.457  2.3103 -1.5131 -0.7329
  688WAT     H2 2827   3.174   3.985   2.599 -0.3025  0.9455  0.4262
  688WAT    EPW 2828   3.189   4.046   2.540  0.2571  0.1908 -0.2249
  689WAT      O 2829   0.811   4.333   3.753  0.3127 -0.5290  0.1616
  689WAT     H1 2830   0.717   4.330   3.768  0.2667  1.0456  0.3332
  689WAT     H2 2831   0.845   4.257   3.800 -0.9062 -1.3945 -0.2959
  689WAT    EPW 2832   0.803   4.323   3.761  0.1458 -0.4355  0.1239
  690WAT      O 2833   0.290   1.198   1.207  0.2579 -0.1971  0.2345
  690WAT     H1 2834   0.224   1.144   1.164  1.1126 -0.4273 -0.8349
  690WAT     H2 2835   0.327   1.142   1.275  0.3965 -0.6017 -0.1698
  690WAT    EPW 2836   0.286   1.183   1.210  0.3889 -0.2808  0.0401
  691WAT      O 2837   1.548   3.001   0.887  0.2111 -0.1715  0.0589
  691WAT     H1 2838   1.522   3.065   0.821 -0.6204  1.2040  1.6587
  691WAT     H2 2839   1.642   3.015   0.897  0.8055 -1.8288 -2.2409
  691WAT    EPW 2840   1.557   3.011   0.880  0.1798 -0.2087 -0.0334
  692WAT      O 2841   1.430   3.395   0.047 -0.5459 -0.7106 -0.7878
  692WAT     H1 2842   1.501   3.372   0.108  0.4131  0.0768 -1.5671
  692WAT     H2 2843   1.449   3.486   0.023 -2.1100 -0.3275 -0.6407
  692WAT    EPW 2844   1.442   3.404   0.052 -0.6257 -0.5562 -0.8712
  693WAT      O 2845   2.874   3.200   0.305  0.3244 -0.2366  0.7655
  693WAT     H1 2846   2.910   3.112   0.306 -0.7302 -0.6817  0.9938
  693WAT     H2 2847   2.794   3.192   0.253  1.4388  1.0963 -1.2771
  693WAT    EPW 2848   2.868   3.187   0.298  0.3323 -0.1195  0.5262
  694WAT      O 2849   0.451   2.115   0.041 -0.1872 -0.0450  0.2405
  694WAT     H1 2850   0.505   2.165  -0.021  2.2028 -0.6923  1.6393
  694WAT     H2 2851   0.459   2.163   0.123 -2.7423  0.4304  0.2802
  694WAT    EPW 2852   0.459   2.128   0.044 -0.2090 -0.0677  0.4302
  695WAT      O 2853   2.420   0.577   2.858  0.1229  0.2312  0.4077
  695WAT     H1 2854   2.424   0.601   2.766  1.7778 -1.3134  0.0170
  695WAT     H2 2855   2.397   0.658   2.903  2.0284  1.7248 -1.1307
  695WAT    EPW 2856   2.418   0.591   2.852  0.5925  0.2245  0.1533
  696WAT      O 2857   1.344   4.268   0.881  0.5344  0.1367 -0.0645
  696WAT     H1 2858   1.433   4.242   0.858  0.4042 -1.1534  0.7534
  696WAT     H2 2859   1.304   4.187   0.915 -0.2465  1.1698  1.6195
  696WAT    EPW 2860   1.350   4.254   0.882  0.4142  0.1028  0.2655
  697WAT      O 2861   1.737   2.358   1.323  0.0001 -0.0060 -0.2941
  697WAT     H1 2862   1.705   2.280   1.368 -0.5871 -0.2214 -1.0685
  697WAT     H2 2863   1.726   2.428   1.387 -2.5853  0.0318 -0.6777
  697WAT    EPW 2864   1.731   2.357   1.337 -0.4183 -0.0294 -0.4468
  698WAT      O 2865   3.206   0.929   0.890  0.3301  0.1911 -0.4500
  698WAT     H1 2866   3.298   0.955   0.892  0.3224  0.2525 -0.8140
  698WAT     H2 2867   3.175   0.958   0.804  0.1929 -0.5639 -0.6680
  698WAT    EPW 2868   3.214   0.936   0.879  0.3110  0.0996 -0.5268
  699WAT      O 2869   2.117   4.242   1.971 -0.4056  0.3275 -0.0371
  699WAT     H1 2870   2.023   4.237   1.989 -0.4329  0.2003 -0.2149
  699WAT     H2 2871   2.129   4.194   1.889  0.1690 -1.7677  1.2023
  699WAT    EPW 2872   2.106   4.235   1.962 -0.3334  0.0343  0.1029
  700WAT      O 2873   2.416   3.728   1.175 -0.2073  0.1193  0.0066
  700WAT     H1 2874   2.421   3.731   1.079  0.6948  1.8855  0.0508
  700WAT     H2 2875   2.329   3.762   1.196 -0.5739 -0.6870 -0.1829
  700WAT    EPW 2876   2.405   3.733   1.165 -0.1367  0.2459 -0.0126
  701WAT      O 2877   1.234   1.300   0.021  0.2414 -0.1214  0.3160
  701WAT     H1 2878   1.226   1.238  -0.052  0.6250  0.6717 -0.4103
  701WAT     H2 2879   1.227   1.245   0.099 -2.3436 -0.7668 -0.2636
  701WAT    EPW 2880   1.232   1.284   0.021 -0.0489 -0.1019  0.1438
  702WAT      O 2881   0.114   1.670   2.312 -0.0277  0.0018 -0.1002
  702WAT     H1 2882   0.025   1.674   2.348  0.1502 -1.6085  0.5889
  702WAT     H2 2883   0.159   1.744   2.352 -0.3621 -0.6491  1.5419
  702WAT    EPW 2884   0.108   1.680   2.322 -0.0483 -0.2964  0.2072
  703WAT      O 2885   0.793   4.355   1.107 -0.5879 -0.1707  0.2956
  703WAT     H1 2886   0.863   4.305   1.149 -0.4347 -0.0301  0.2110
  703WAT     H2 2887   0.827   4.444   1.102 -0.1113 -0.4021 -1.1902
  703WAT    EPW 2888   0.807   4.360   1.112 -0.5048 -0.1827  0.0884
  704WAT      O 2889   2.090   0.656   0.958 -0.2702  0.0889 -0.0237
  704WAT     H1 2890   2.004   0.623   0.984 -0.6001 -0.1528 -1.3391
  704WAT     H2 2891   2.082   0.671   0.864  1.3235 -0.5259 -0.2851
  704WAT    EPW 2892   2.078   0.654   0.949 -0.1035 -0.0241 -0.2317
  705WAT      O 2893   2.537   4.179   1.219 -0.7179 -0.4444  0.7776
  705WAT     H1 2894   2.449   4.169   1.255 -1.5718 -0.7816 -1.2480
  705WAT     H2 2895   2.538   4.268   1.183 -0.8262 -0.9638 -0.5906
  705WAT    EPW 2896   2.525   4.189   1.219 -0.8448 -0.5574  0.3300
  706WAT      O 2897   3.536   3.015   3.741 -0.1477 -0.0750  0.0067
  706WAT     H1 2898   3.505   3.077   3.807  0.2946 -0.0245  0.1656
  706WAT     H2 2899   3.521   3.059   3.657  2.3266  1.2402  0.1924
  706WAT    EPW 2900   3.530   3.029   3.739  0.2370  0.1051  0.0521
  707WAT      O 2901   0.824   2.320   3.647  0.6750 -0.2053  0.1340
  707WAT     H1 2902   0.884   2.335   3.574  0.5655 -1.4501 -0.2361
  707WAT     H2 2903   0.749   2.377   3.628  1.5258  1.0275  0.3716
  707WAT    EPW 2904   0.822   2.330   3.635  0.7728 -0.2069  0.1165
  708WAT      O 2905   2.672   0.653   0.416  0.4377  0.5332  0.0681
  708WAT     H1 2906   2.703   0.565   0.436 -0.5001 -0.1939 -1.4781
  708WAT     H2 2907   2.637   0.686   0.498  0.8187 -0.5285  0.6776
  708WAT    EPW 2908   2.672   0.646   0.429  0.3643  0.2973 -0.0555
  709WAT      O 2909   2.153   3.172   0.323 -0.7971  0.0387  0.0082
  709WAT     H1 2910   2.243   3.148   0.305 -0.2255  1.6880  0.4951
  709WAT     H2 2911   2.103   3.137   0.249  0.4506  0.3804 -1.0278
  709WAT    EPW 2912   2.158   3.164   0.311 -0.5571  0.3013 -0.0642
  710WAT      O 2913   1.471   3.221   0.725  0.2035 -0.1412  0.2492
  710WAT     H1 2914   1.479   3.291   0.789  0.3905  0.4125 -0.3728
  710WAT     H2 2915   1.378   3.196   0.729 -0.2429  1.2684 -0.6872
  710WAT    EPW 2916   1.460   3.227   0.734  0.1693  0.1177  0.0436
  711WAT      O 2917   2.861   3.522   3.170  0.5220  1.0434  0.0558
  711WAT     H1 2918   2.811   3.521   3.088  2.0959  1.7272 -0.9594
  711WAT     H2 2919   2.795   3.531   3.239 -1.1720 -2.5422 -0.8459
  711WAT    EPW 2920   2.846   3.523   3.168  0.5062  0.6607 -0.1970
  712WAT      O 2921   2.380   0.742   2.609  0.0582  0.3094  0.0600
  712WAT     H1 2922   2.284   0.744   2.603  0.1372  0.1571 -1.6303
  712WAT     H2 2923   2.406   0.670   2.551  1.1288 -0.8812  1.9215
  712WAT    EPW 2924   2.370   0.733   2.601  0.2099  0.1323  0.0826
  713WAT      O 2925   3.597   3.692   2.148  0.2167  0.7536  0.1785
  713WAT     H1 2926   3.670   3.696   2.210  2.2843 -2.2815 -1.7632
  713WAT     H2 2927   3.526   3.649   2.197  1.3508 -0.4268  0.8341
  713WAT    EPW 2928   3.597   3.687   2.163  0.6390  0.1976  0.0089
  714WAT      O 2929   0.240   1.881   3.589  0.3436 -0.2796  0.1999
  714WAT     H1 2930   0.269   1.962   3.547 -0.8269 -0.5139 -1.1263
  714WAT     H2 2931   0.242   1.815   3.520 -2.6631 -0.4437  0.1235
  714WAT    EPW 2932   0.244   1.883   3.574 -0.2074 -0.3321  0.0149
  715WAT      O 2933   3.495   2.360   1.769  0.5819  0.2133  0.4024
  715WAT     H1 2934   3.465   2.408   1.691 -0.8321  0.1764  0.8979
  715WAT     H2 2935   3.583   2.329   1.745  0.2033  0.2560 -1.1514
  715WAT    EPW 2936   3.503   2.362   1.755  0.3455  0.2141  0.2628
  716WAT      O 2937   1.671   1.260   0.327  0.3115  0.0195 -0.5212
  716WAT     H1 2938   1.679   1.354   0.310  0.4066 -0.0434 -0.8407
  716WAT     H2 2939   1.640   1.224   0.244 -1.3498 -0.0161  0.0762
  716WAT    EPW 2940   1.668   1.267   0.314  0.1049  0.0065 -0.4846
  717WAT      O 2941   2.032   3.482   3.631 -0.1615  0.8276  0.1366
  717WAT     H1 2942   2.021   3.454   3.540  0.2159  2.2738 -0.3877
  717WAT     H2 2943   2.072   3.568   3.625  0.2557  0.7796  1.7014
  717WAT    EPW 2944   2.036   3.490   3.618 -0.0567  1.0120  0.2738
  718WAT      O 2945   3.635   0.570   0.560  0.2428 -0.0983  0.0656
  718WAT     H1 2946   3.676   0.624   0.628 -1.5406  1.2038  0.1890
  718WAT     H2 2947   3.708   0.528   0.515  1.6264  1.2230  0.9857
  718WAT    EPW 2948   3.650   0.572   0.563  0.1900  0.2477  0.2032
  719WAT      O 2949   0.628   0.126   3.553  0.4149 -0.1064 -0.7612
  719WAT     H1 2950   0.583   0.162   3.477  0.5767 -0.6131 -1.0998
  719WAT     H2 2951   0.700   0.187   3.570 -1.7994  2.1520  1.3311
  719WAT    EPW 2952   0.632   0.138   3.545  0.1442  0.1246 -0.5299
  720WAT      O 2953   0.698   2.981   2.154  0.1765  0.5848 -0.6729
  720WAT     H1 2954   0.683   2.976   2.249  0.7084  1.6507 -0.5248
  720WAT     H2 2955   0.611   2.987   2.116  0.0038  1.4879 -0.1573
  720WAT    EPW 2956   0.685   2.981   2.162  0.2239  0.8445 -0.5854
  721WAT      O 2957   0.651   1.171   0.220  0.1554 -0.0345 -0.0235
  721WAT     H1 2958   0.586   1.129   0.164  0.4881 -0.2490 -0.2568
  721WAT     H2 2959   0.645   1.264   0.199  1.6926 -0.3067 -1.9642
  721WAT    EPW 2960   0.642   1.178   0.210  0.4021 -0.0987 -0.3102
  722WAT      O 2961   3.405   2.746   1.438 -0.1459  0.5373 -0.3180
  722WAT     H1 2962   3.341   2.729   1.369 -1.4025  1.2004  0.6417
  722WAT     H2 2963   3.477   2.790   1.393  0.0933 -1.0425 -1.5833
  722WAT    EPW 2964   3.406   2.750   1.423 -0.2801  0.4164 -0.3583
  723WAT      O 2965   2.249   0.018   1.118 -0.0478  0.2862 -0.0347
  723WAT     H1 2966   2.241  -0.060   1.174 -0.3844 -0.7433 -1.4794
  723WAT     H2 2967   2.204  -0.005   1.037 -0.7007  2.2301 -0.2810
  723WAT    EPW 2968   2.242   0.005   1.115 -0.1783  0.4068 -0.2577
  724WAT      O 2969   1.120   2.217   2.810 -0.0766 -0.0136 -0.2058
  724WAT     H1 2970   1.113   2.204   2.716 -0.0911  2.6130 -0.6389
  724WAT     H2 2971   1.214   2.230   2.826 -0.0942 -0.2691  0.1264
  724WAT    EPW 2972   1.131   2.217   2.800 -0.0809  0.2992 -0.2191
  725WAT      O 2973   2.378   3.209   2.590 -0.1726  0.2533 -0.9142
  725WAT     H1 2974   2.413   3.140   2.534  0.1295 -0.2699 -0.1058
  725WAT     H2 2975   2.289   3.182   2.610 -0.3922  0.6087 -1.4126
  725WAT    EPW 2976   2.371   3.196   2.585 -0.1617  0.2312 -0.8733
  726WAT      O 2977   2.329   3.174   3.082 -0.2287  0.6265  0.1129
  726WAT     H1 2978   2.241   3.152   3.112  0.0621  0.2354  0.6962
  726WAT     H2 2979   2.387   3.146   3.153  0.5100 -0.7301 -0.9780
  726WAT    EPW 2980   2.325   3.167   3.095 -0.0929  0.3960  0.0459
  727WAT      O 2981   0.512   2.990   1.896  0.1825 -0.2755 -0.0500
  727WAT     H1 2982   0.478   3.075   1.871  2.4004  0.4362 -0.9145
  727WAT     H2 2983   0.555   2.957   1.817 -1.1609 -2.5354  0.0571
  727WAT    EPW 2984   0.513   2.997   1.882  0.2978 -0.4797 -0.1499
  728WAT      O 2985   2.159   2.908   3.393  0.4990  0.2160  0.0589
  728WAT     H1 2986   2.122   2.940   3.310  0.3754  1.5519  0.6141
  728WAT     H2 2987   2.087   2.859   3.433 -0.1124  1.2896  0.3047
  728WAT    EPW 2988   2.144   2.906   3.387  0.4020  0.5338  0.1645
  729WAT      O 2989   0.350   2.203   2.265 -0.0633 -0.8796  0.0337
  729WAT     H1 2990   0.440   2.217   2.296 -0.7080  0.4328  1.4350
  729WAT     H2 2991   0.356   2.220   2.171  1.1266 -0.6428  0.1278
  729WAT    EPW 2992   0.363   2.207   2.256  0.0086 -0.6752  0.2309
  730WAT      O 2993   2.748   1.709   1.021  0.0075 -0.5411 -0.4408
  730WAT     H1 2994   2.806   1.746   1.088 -1.9045 -0.0234  0.9931
  730WAT     H2 2995   2.692   1.782   0.995 -0.3549 -1.1623 -1.4383
  730WAT    EPW 2996   2.749   1.723   1.026 -0.2925 -0.5548 -0.3832
  731WAT      O 2997   1.651   4.338   2.991 -0.3434  0.2792 -0.1138
  731WAT     H1 2998   1.668   4.386   2.910 -0.7365  1.3839  0.4282
  731WAT     H2 2999   1.558   4.353   3.009 -0.4429 -0.6031  0.1373
  731WAT    EPW 3000   1.641   4.347   2.983 -0.4084  0.3085 -0.0092
  732WAT      O 3001   2.875   0.596   1.786 -0.0211  0.4362  0.0141
  732WAT     H1 3002   2.958   0.624   1.824  0.0720 -0.1393  0.2508
  732WAT     H2 3003   2.809   0.648   1.833  0.0926 -0.2505  0.9798
  732WAT    EPW 3004   2.877   0.606   1.797  0.0062  0.2697  0.1727
  733WAT      O 3005   0.112   0.553   3.112  0.5109  0.0334  0.4674
  733WAT     H1 3006   0.111   0.618   3.182  1.0920  1.0218 -0.4114
  733WAT     H2 3007   0.038   0.576   3.057  0.7819  0.0182  0.0934
  733WAT    EPW 3008   0.102   0.564   3.114  0.6233  0.1618  0.3021
  734WAT      O 3009   1.227   1.745   1.852  0.4524  0.5161 -0.3073
  734WAT     H1 3010   1.313   1.775   1.881  0.1966  1.0434 -0.0911
  734WAT     H2 3011   1.219   1.779   1.762 -1.2367  4.1556  1.0260
  734WAT    EPW 3012   1.237   1.753   1.844  0.1959  1.0657 -0.1029
  735WAT      O 3013   0.913   4.171   0.863  0.4011  0.1175  0.5692
  735WAT     H1 3014   0.903   4.258   0.902  0.6071 -0.0224  0.9346
  735WAT     H2 3015   1.005   4.168   0.835  0.0475  0.5469 -0.7292
  735WAT    EPW 3016   0.924   4.182   0.865  0.3816  0.1557  0.4461
  736WAT      O 3017   2.854   1.578   2.568 -0.0890  0.1291 -0.2161
  736WAT     H1 3018   2.894   1.543   2.648 -0.5292 -0.7293 -0.3597
  736WAT     H2 3019   2.929   1.596   2.511  0.1309 -1.4273 -0.4662
  736WAT    EPW 3020   2.869   1.576   2.571 -0.1181 -0.1894 -0.2680
  737WAT      O 3021   0.768   2.344   3.015 -0.2711  0.5005 -0.0590
  737WAT     H1 3022   0.819   2.267   2.990 -1.2975 -0.0719 -0.4636
  737WAT     H2 3023   0.809   2.374   3.096 -0.1239 -0.7560  0.3606
  737WAT    EPW 3024   0.780   2.338   3.022 -0.3870  0.2593 -0.0570
  738WAT      O 3025   0.713   1.443   3.706 -0.0253  0.1119 -0.1499
  738WAT     H1 3026   0.711   1.347   3.702  0.7434  0.0783  0.1130
  738WAT     H2 3027   0.792   1.467   3.656  0.2119  0.5672  0.4403
  738WAT    EPW 3028   0.723   1.433   3.699  0.1073  0.1675 -0.0374
  739WAT      O 3029   2.924   3.417   0.668  0.0526  0.1022 -0.2001
  739WAT     H1 3030   2.970   3.417   0.584 -0.6529 -0.2392 -0.6020
  739WAT     H2 3031   2.989   3.447   0.732  1.1140 -1.2276 -0.5925
  739WAT    EPW 3032   2.939   3.421   0.665  0.0996 -0.1182 -0.3048
  740WAT      O 3033   0.937   2.290   0.875  0.4104 -0.5043  0.7219
  740WAT     H1 3034   1.001   2.301   0.945  1.7042  0.4148 -0.5505
  740WAT     H2 3035   0.887   2.372   0.875  1.8493  0.4384 -0.7642
  740WAT    EPW 3036   0.939   2.302   0.884  0.7708 -0.2587  0.3581
  741WAT      O 3037   3.540   0.332   1.214  1.0121 -0.0502 -0.0548
  741WAT     H1 3038   3.617   0.319   1.270  0.7164  0.9981  0.6225
  741WAT     H2 3039   3.472   0.279   1.255  0.9932  0.1400  0.1610
  741WAT    EPW 3040   3.541   0.323   1.227  0.9706  0.1131  0.0630
  742WAT      O 3041   3.681   1.744   2.031 -0.1264 -0.4071  0.4208
  742WAT     H1 3042   3.635   1.663   2.009 -1.0237  0.0083  0.6721
  742WAT     H2 3043   3.721   1.726   2.116 -0.4562 -0.5409  0.5509
  742WAT    EPW 3044   3.680   1.731   2.039 -0.2882 -0.3700  0.4711
  743WAT      O 3045   2.302   3.677   2.364  0.1620  0.7030 -0.2304
  743WAT     H1 3046   2.291   3.700   2.272 -0.7111  1.1882 -0.0179
  743WAT     H2 3047   2.396   3.669   2.376  0.5000  3.3064 -0.5627
  743WAT    EPW 3048   2.313   3.679   2.353  0.0914  1.1103 -0.2462
  744WAT      O 3049   2.242   3.853   0.191  0.3410  0.7815  0.4223
  744WAT     H1 3050   2.293   3.846   0.111  1.6661 -0.9464  1.3590
  744WAT     H2 3051   2.154   3.827   0.166  0.7224  0.3383 -0.4860
  744WAT    EPW 3052   2.237   3.849   0.177  0.5660  0.4952  0.4260
  745WAT      O 3053   2.937   4.197   1.855  0.7457 -0.1706  0.4173
  745WAT     H1 3054   2.930   4.255   1.931  1.2610 -1.3209  1.3742
  745WAT     H2 3055   2.992   4.125   1.885  0.9837 -0.6426 -1.0708
  745WAT    EPW 3056   2.943   4.195   1.869  0.8451 -0.3846  0.3472
  746WAT      O 3057   1.073   0.142   1.949 -0.2389 -0.1480 -0.0825
  746WAT     H1 3058   1.118   0.057   1.945  0.5902  0.2679  0.0632
  746WAT     H2 3059   1.070   0.171   1.858 -1.0402 -0.5822 -0.2054
  746WAT    EPW 3060   1.079   0.134   1.936 -0.2352 -0.1504 -0.0795
  747WAT      O 3061   2.122   3.031   2.515  0.1577  0.0098  0.6249
  747WAT     H1 3062   2.093   3.101   2.574  1.7646  1.5467 -0.2961
  747WAT     H2 3063   2.179   3.076   2.452 -1.4657 -1.5225 -2.1398
  747WAT    EPW 3064   2.126   3.046   2.514  0.1555  0.0104  0.1388
  748WAT      O 3065   2.791   1.986   3.246  0.0211 -0.2416 -0.3328
  748WAT     H1 3066   2.704   1.956   3.272  0.1931 -0.1777  0.3384
  748WAT     H2 3067   2.786   2.081   3.252  0.2416 -0.2521  0.0710
  748WAT    EPW 3068   2.779   1.994   3.250  0.0729 -0.2346 -0.1910
  749WAT      O 3069   0.921   0.496   0.857  0.2038  0.3661  0.0854
  749WAT     H1 3070   0.885   0.440   0.788 -0.1026  2.2597 -1.3924
  749WAT     H2 3071   0.994   0.542   0.814  1.1223  0.3476  1.5551
  749WAT    EPW 3072   0.926   0.494   0.842  0.2846  0.6134  0.0843
  750WAT      O 3073   1.091   1.926   1.299  0.0273 -0.2983  0.2066
  750WAT     H1 3074   1.021   1.860   1.298  0.3552 -0.6512  0.5064
  750WAT     H2 3075   1.164   1.884   1.344  0.1388  0.3719  0.6757
  750WAT    EPW 3076   1.091   1.912   1.304  0.0853 -0.2564  0.3080
  751WAT      O 3077   0.599   3.888   0.257 -0.0143 -0.2876  0.5284
  751WAT     H1 3078   0.635   3.903   0.345  0.9059 -0.5788  0.2113
  751WAT     H2 3079   0.505   3.900   0.268  0.2612  1.7318  1.1269
  751WAT    EPW 3080   0.592   3.891   0.270  0.1434 -0.0597  0.5655
  752WAT      O 3081   2.791   1.050   3.551  0.0033 -0.1418  0.1513
  752WAT     H1 3082   2.715   1.070   3.498 -1.1297  0.4638  1.9088
  752WAT     H2 3083   2.760   0.985   3.614  1.5019 -1.4146 -0.3555
  752WAT    EPW 3084   2.777   1.044   3.553  0.0515 -0.2298  0.3162
  753WAT      O 3085   3.649   2.463   0.617  0.2809 -0.5410  0.4017
  753WAT     H1 3086   3.717   2.422   0.669 -0.3127 -1.6021  0.3537
  753WAT     H2 3087   3.677   2.449   0.526  0.6809  0.2247  0.3950
  753WAT    EPW 3088   3.662   2.456   0.612  0.2554 -0.5800  0.3945
  754WAT      O 3089   3.679   1.356   3.495  0.4445  0.2809 -0.2135
  754WAT     H1 3090   3.676   1.275   3.443 -2.4954  0.1481  0.0067
  754WAT     H2 3091   3.651   1.425   3.434 -0.5375  0.5306  0.4988
  754WAT    EPW 3092   3.675   1.354   3.480 -0.0727  0.2963 -0.0905
  755WAT      O 3093   1.432   2.596   1.433  0.0400 -0.1429  0.1726
  755WAT     H1 3094   1.398   2.545   1.360  0.0101  0.0757  0.0326
  755WAT     H2 3095   1.455   2.531   1.499  0.1994 -0.3503 -0.0872
  755WAT    EPW 3096   1.430   2.581   1.432  0.0571 -0.1415  0.1199
  756WAT      O 3097   1.747   1.323   1.586  0.0735 -0.0497  0.3917
  756WAT     H1 3098   1.797   1.368   1.654  0.0008 -0.7842  0.9333
  756WAT     H2 3099   1.775   1.366   1.505  0.5974  0.4363  0.8175
  756WAT    EPW 3100   1.757   1.335   1.584  0.1330 -0.0824  0.5193
  757WAT      O 3101   0.955   0.333   3.285 -0.4734  0.5128  0.0018
  757WAT     H1 3102   0.944   0.242   3.314 -3.5949  0.1778 -1.7262
  757WAT     H2 3103   0.995   0.324   3.198 -1.0832  0.7189 -0.3087
  757WAT    EPW 3104   0.959   0.320   3.277 -0.9655  0.4958 -0.2671
  758WAT      O 3105   3.667   3.706   1.849  0.0365  0.1331 -0.0293
  758WAT     H1 3106   3.588   3.703   1.795 -0.5523 -0.3459  0.8219
  758WAT     H2 3107   3.634   3.698   1.939  1.1060 -0.7888  0.3026
  758WAT    EPW 3108   3.652   3.705   1.854  0.0999 -0.0517  0.1268
  759WAT      O 3109   2.323   1.867   0.385 -0.3978  0.7310 -0.4442
  759WAT     H1 3110   2.298   1.955   0.412 -0.4389  0.2200  1.2958
  759WAT     H2 3111   2.394   1.842   0.444 -0.5506 -0.4889 -0.7316
  759WAT    EPW 3112   2.329   1.875   0.396 -0.4234  0.5027 -0.2526
  760WAT      O 3113   3.274   2.485   0.477  0.1471 -0.4747  0.2535
  760WAT     H1 3114   3.247   2.576   0.487  1.2937 -0.0538 -0.3624
  760WAT     H2 3115   3.349   2.488   0.418 -0.3592 -1.9159 -0.5027
  760WAT    EPW 3116   3.280   2.497   0.471  0.2316 -0.6093  0.0726
  761WAT      O 3117   0.066   0.921   2.676  0.4108 -0.2088  0.5563
  761WAT     H1 3118  -0.003   0.963   2.727 -0.4950 -0.1952 -0.6289
  761WAT     H2 3119   0.089   0.843   2.725 -0.8995 -0.5486  0.6727
  761WAT    EPW 3120   0.060   0.917   2.689  0.1185 -0.2519  0.4153
  762WAT      O 3121   0.062   1.447   0.978 -0.3531 -0.1049 -0.0545
  762WAT     H1 3122   0.138   1.500   0.956  0.1892 -0.8478 -0.0030
  762WAT     H2 3123   0.068   1.370   0.921  0.0079 -1.1065  1.2623
  762WAT    EPW 3124   0.073   1.444   0.968 -0.2340 -0.3350  0.1260
  763WAT      O 3125   1.375   3.733   3.008  0.5798  0.0698  0.3138
  763WAT     H1 3126   1.291   3.709   3.048  0.7462  0.3768  0.8546
  763WAT     H2 3127   1.367   3.703   2.917  0.0047 -0.1843  0.4406
  763WAT    EPW 3128   1.363   3.726   3.001  0.5259  0.0768  0.4018
  764WAT      O 3129   0.771   3.501   2.086  0.1302 -0.2546 -0.0126
  764WAT     H1 3130   0.749   3.483   1.994 -0.0984  0.4554 -0.1066
  764WAT     H2 3131   0.822   3.581   2.082 -1.8147  1.0989  0.6410
  764WAT    EPW 3132   0.775   3.509   2.073 -0.1565  0.0176  0.0612
  765WAT      O 3133   1.183   1.817   1.598 -0.4935  0.1366 -0.0592
  765WAT     H1 3134   1.193   1.768   1.517  1.5489  0.4096 -0.0464
  765WAT     H2 3135   1.110   1.877   1.582 -1.2634 -1.0333 -1.0267
  765WAT    EPW 3136   1.175   1.819   1.586 -0.3256  0.0183 -0.1851
  766WAT      O 3137   1.640   1.912   2.266  0.3797 -0.0900 -0.0096
  766WAT     H1 3138   1.733   1.916   2.242  0.5699  1.9991  0.8763
  766WAT     H2 3139   1.599   1.866   2.193  2.2416 -2.1898  0.1481
  766WAT    EPW 3140   1.647   1.906   2.253  0.6503 -0.0914  0.1280
  767WAT      O 3141   0.640   3.088   1.002 -0.2123 -0.6359 -0.0933
  767WAT     H1 3142   0.707   3.091   0.934  0.2598 -0.3962  0.3679
  767WAT     H2 3143   0.675   3.143   1.072 -0.0817 -1.9231  0.8822
  767WAT    EPW 3144   0.653   3.096   1.003 -0.1328 -0.7740  0.0962
  768WAT      O 3145   0.003   2.013   3.704  0.2775 -0.0893 -0.3846
  768WAT     H1 3146   0.031   1.957   3.632  2.7120 -0.4811  0.7464
  768WAT     H2 3147   0.015   2.103   3.671  4.2291 -0.1782  0.3096
  768WAT    EPW 3148   0.008   2.018   3.690  1.1198 -0.1527 -0.1439
  769WAT      O 3149   3.445   4.080   2.713  0.1045 -0.2861 -0.2791
  769WAT     H1 3150   3.360   4.077   2.667  0.4163 -1.1838 -0.8382
  769WAT     H2 3151   3.433   4.021   2.787 -0.1763  0.6340  0.4302
  769WAT    EPW 3152   3.432   4.072   2.717  0.1086 -0.2832 -0.2593
  770WAT      O 3153   1.564   0.637   3.433  0.3519  0.2034  0.2166
  770WAT     H1 3154   1.534   0.547   3.429 -0.0774  0.3175  0.7573
  770WAT     H2 3155   1.543   0.666   3.521  2.7216  0.0668  0.8991
  770WAT    EPW 3156   1.557   0.629   3.444  0.6079  0.2004  0.3779
  771WAT      O 3157   0.703   3.740   1.175  0.0623 -0.4956  0.1083
  771WAT     H1 3158   0.740   3.669   1.122 -1.1507 -0.2004 -1.1729
  771WAT     H2 3159   0.691   3.813   1.115  0.4959  0.5446  1.2293
  771WAT    EPW 3160   0.706   3.740   1.160 -0.0405 -0.3195  0.0872
  772WAT      O 3161   3.164   1.097   0.293 -0.4979 -0.0760 -0.4895
  772WAT     H1 3162   3.154   1.088   0.198 -0.0461  0.0666 -0.5530
  772WAT     H2 3163   3.101   1.034   0.330 -2.2791  1.4199 -0.8398
  772WAT    EPW 3164   3.155   1.088   0.285 -0.6733  0.1401 -0.5441
  773WAT      O 3165   3.248   3.643   3.450  0.0269 -0.0935 -0.5515
  773WAT     H1 3166   3.155   3.637   3.432 -0.7603  2.4134  1.9243
  773WAT     H2 3167   3.279   3.714   3.394  0.0722  0.0905 -0.2999
  773WAT    EPW 3168   3.240   3.652   3.440 -0.0710  0.2614 -0.1918
  774WAT      O 3169   3.294   3.678   0.554  0.1691  0.3867 -0.6192
  774WAT     H1 3170   3.336   3.620   0.618 -0.9290 -0.1584 -0.3611
  774WAT     H2 3171   3.233   3.731   0.606 -1.6652 -0.9221 -1.3113
  774WAT    EPW 3172   3.291   3.677   0.570 -0.2177  0.1422 -0.6764
  775WAT      O 3173   3.713   2.169   1.067  0.5844 -0.5445 -0.1556
  775WAT     H1 3174   3.617   2.172   1.063  0.5827  0.2274  0.2480
  775WAT     H2 3175   3.737   2.246   1.118  1.3662 -1.4767  0.9224
  775WAT    EPW 3176   3.703   2.180   1.073  0.6873 -0.5656  0.0398
  776WAT      O 3177   3.219   4.339   1.985 -0.3140  0.8175  0.2851
  776WAT     H1 3178   3.264   4.330   1.901 -2.5890  0.3055 -0.9771
  776WAT     H2 3179   3.260   4.273   2.041 -1.3125 -1.6568 -1.6989
  776WAT    EPW 3180   3.230   4.329   1.981 -0.7457  0.4236 -0.1430
  777WAT      O 3181   1.703   3.532   0.841 -0.1941 -0.2647 -0.3291
  777WAT     H1 3182   1.646   3.477   0.895 -0.7899  1.4658  0.9359
  777WAT     H2 3183   1.789   3.492   0.848 -0.6751 -1.2445  0.2116
  777WAT    EPW 3184   1.707   3.520   0.849 -0.3362 -0.1657 -0.0909
  778WAT      O 3185   2.595   1.794   1.587 -0.3879  0.0006 -0.0578
  778WAT     H1 3186   2.567   1.873   1.634  1.1428  0.6205 -0.1243
  778WAT     H2 3187   2.686   1.781   1.614 -0.7272 -2.0230  0.3027
  778WAT    EPW 3188   2.604   1.803   1.597 -0.2308 -0.1846 -0.0190
  779WAT      O 3189   3.358   0.121   1.304  0.1598 -0.1865  0.6896
  779WAT     H1 3190   3.296   0.054   1.276 -1.3558  1.4444 -0.0910
  779WAT     H2 3191   3.444   0.081   1.292 -0.5884 -1.2691 -1.8188
  779WAT    EPW 3192   3.361   0.107   1.298 -0.1388 -0.1142  0.2558
  780WAT      O 3193   3.075   0.813   2.288  0.3194 -0.0123 -0.4127
  780WAT     H1 3194   3.076   0.759   2.209  0.0908  0.3767 -0.6891
  780WAT     H2 3195   2.986   0.807   2.320  0.7589 -1.3492  0.6626
  780WAT    EPW 3196   3.064   0.805   2.282  0.3472 -0.1373 -0.3073
  781WAT      O 3197   1.757   1.365   1.090  0.5087 -0.0046 -0.1942
  781WAT     H1 3198   1.787   1.398   1.005  0.6981 -2.4820 -1.1791
  781WAT     H2 3199   1.764   1.270   1.082 -1.3311 -0.3902  1.9260
  781WAT    EPW 3200   1.762   1.357   1.078  0.2910 -0.3822 -0.0445
  782WAT      O 3201   2.542   1.862   3.296 -0.5478  0.3631 -0.3018
  782WAT     H1 3202   2.492   1.912   3.231 -2.1714 -0.0420  0.5905
  782WAT     H2 3203   2.539   1.772   3.264  0.3182  0.4421 -0.6460
  782WAT    EPW 3204   2.535   1.857   3.283 -0.6477  0.3201 -0.2295
  783WAT      O 3205   0.952   1.985   2.618 -0.3391  0.4231  0.4463
  783WAT     H1 3206   0.934   1.929   2.693  1.8751  0.4742  1.0988
  783WAT     H2 3207   1.005   1.931   2.559 -0.3834  1.0094 -0.1532
  783WAT    EPW 3208   0.957   1.971   2.620 -0.0529  0.5071  0.4533
  784WAT      O 3209   3.591   3.680   0.790 -0.2069 -0.0001  0.3681
  784WAT     H1 3210   3.665   3.702   0.847 -0.6230 -0.0939  0.9491
  784WAT     H2 3211   3.533   3.756   0.798 -0.1088  0.1371 -0.2005
  784WAT    EPW 3212   3.593   3.693   0.799 -0.2489  0.0057  0.3697
  785WAT      O 3213   2.178   1.480   2.877 -0.0165 -0.3214  0.3060
  785WAT     H1 3214   2.084   1.464   2.879  0.4608 -4.1296  0.9098
  785WAT     H2 3215   2.187   1.574   2.861 -3.8662  0.0962 -0.2742
  785WAT    EPW 3216   2.167   1.490   2.875 -0.4613 -0.7686  0.3091
  786WAT      O 3217   2.685   4.085   2.001 -0.2882 -0.1412  0.2406
  786WAT     H1 3218   2.592   4.066   1.990 -0.2554  0.0471 -0.4258
  786WAT     H2 3219   2.699   4.165   1.951  0.4017 -0.6350 -0.3782
  786WAT    EPW 3220   2.675   4.093   1.993 -0.1929 -0.1815  0.0711
  787WAT      O 3221   0.696   3.215   0.611 -0.3475 -0.1625 -0.1884
  787WAT     H1 3222   0.672   3.282   0.674  0.5221 -0.0015 -0.0273
  787WAT     H2 3223   0.784   3.238   0.582 -0.6852 -0.2907 -1.3884
  787WAT    EPW 3224   0.704   3.227   0.615 -0.2773 -0.1582 -0.3255
  788WAT      O 3225   3.424   2.454   0.782  0.5842 -0.0631  0.2044
  788WAT     H1 3226   3.444   2.540   0.819  1.4058 -0.2928  0.3035
  788WAT     H2 3227   3.493   2.439   0.717  2.2809 -1.9360  2.2658
  788WAT    EPW 3228   3.436   2.464   0.778  0.9163 -0.3404  0.4893
  789WAT      O 3229   1.488   0.354   1.805  0.7902  0.4614  0.1323
  789WAT     H1 3230   1.512   0.445   1.787  0.1088  0.3353 -1.6060
  789WAT     H2 3231   1.547   0.303   1.750 -1.2360  0.0337 -1.7761
  789WAT    EPW 3232   1.499   0.360   1.795  0.4331  0.3883 -0.3487
  790WAT      O 3233   2.838   0.131   2.292  0.4136 -0.2374 -0.3790
  790WAT     H1 3234   2.823   0.126   2.386 -0.5091  2.2393 -0.3165
  790WAT     H2 3235   2.752   0.116   2.252  0.1810  1.5823 -0.6424
  790WAT    EPW 3236   2.825   0.128   2.299  0.2613  0.3293 -0.4055
  791WAT      O 3237   3.554   3.202   2.440  0.3417 -0.3522  0.0278
  791WAT     H1 3238   3.571   3.138   2.370  1.3444  0.4656 -0.5171
  791WAT     H2 3239   3.631   3.259   2.438 -0.3995  0.6953  0.6978
  791WAT    EPW 3240   3.567   3.201   2.430  0.3762 -0.1062  0.0443
  792WAT      O 3241   0.419   1.542   3.675 -0.2093 -0.6943 -0.1577
  792WAT     H1 3242   0.377   1.468   3.632  0.8563 -1.3978 -0.0001
  792WAT     H2 3243   0.509   1.515   3.689  0.5873  1.1434 -1.3361
  792WAT    EPW 3244   0.425   1.529   3.672  0.0363 -0.5447 -0.2923
  793WAT      O 3245   1.152   4.119   2.590  0.2993  0.3265 -0.2424
  793WAT     H1 3246   1.167   4.046   2.650 -0.2656  0.9524  0.6893
  793WAT     H2 3247   1.057   4.116   2.574  0.2256  1.0178  0.0372
  793WAT    EPW 3248   1.141   4.109   2.596  0.2151  0.5002 -0.0827
  794WAT      O 3249   1.819   2.649   0.195 -0.4393 -0.0133 -0.0113
  794WAT     H1 3250   1.882   2.721   0.192 -1.4601  0.8997 -1.9379
  794WAT     H2 3251   1.757   2.674   0.263 -0.6075  0.8020 -0.4453
  794WAT    EPW 3252   1.819   2.662   0.203 -0.5961  0.2146 -0.3227
  795WAT      O 3253   2.311   2.687   0.481 -0.7860  0.4803  0.0830
  795WAT     H1 3254   2.374   2.666   0.413 -0.9180 -0.2692  0.1833
  795WAT     H2 3255   2.258   2.608   0.490 -1.2505  0.8349  0.5282
  795WAT    EPW 3256   2.312   2.674   0.473 -0.8647  0.4282  0.1549
  796WAT      O 3257   2.829   0.611   1.525 -0.2454  0.1266 -0.3016
  796WAT     H1 3258   2.884   0.671   1.475  1.0923 -1.4529 -0.8341
  796WAT     H2 3259   2.864   0.615   1.614 -0.3459  0.3442 -0.2712
  796WAT    EPW 3260   2.841   0.619   1.530 -0.0822 -0.0531 -0.3678
  797WAT      O 3261   0.143   3.038   1.809  0.1896 -0.2481 -0.3207
  797WAT     H1 3262   0.081   3.074   1.746  0.0827  1.1445  0.5476
  797WAT     H2 3263   0.206   2.991   1.756 -1.0956 -0.9492 -1.2947
  797WAT    EPW 3264   0.143   3.036   1.794  0.0060 -0.1569 -0.3346
  798WAT      O 3265   3.471   3.174   2.934  0.4143 -0.2076 -0.2051
  798WAT     H1 3266   3.509   3.200   2.850  0.5129 -1.0238 -0.4211
  798WAT     H2 3267   3.515   3.230   2.998  2.8155 -1.7948 -0.3087
  798WAT    EPW 3268   3.482   3.185   2.931  0.7440 -0.5246 -0.2473
  799WAT      O 3269   0.109   0.912   2.988 -0.4779 -0.3278 -0.2860
  799WAT     H1 3270   0.137   0.841   2.930 -0.9181  1.3483 -2.6930
  799WAT     H2 3271   0.026   0.942   2.951 -1.0910  0.4850  1.5973
  799WAT    EPW 3272   0.102   0.907   2.976 -0.6168  0.0005 -0.3551
  800WAT      O 3273   2.249   2.875   2.206 -0.9439  0.3033 -0.2060
  800WAT     H1 3274   2.261   2.815   2.279 -3.3524 -1.0669 -0.8271
  800WAT     H2 3275   2.320   2.854   2.146  0.0240  0.2198  0.9247
  800WAT    EPW 3276   2.260   2.864   2.208 -1.1339  0.1115 -0.1388
  801WAT      O 3277   2.209   3.948   1.063  0.0482 -0.2443  0.2856
  801WAT     H1 3278   2.230   4.005   0.989  1.8693  0.5389  1.3255
  801WAT     H2 3279   2.221   4.003   1.141  0.5862 -1.6702  1.2631
  801WAT    EPW 3280   2.214   3.963   1.064  0.3594 -0.3291  0.5517
  802WAT      O 3281   1.303   1.803   0.378 -0.1367  0.0601 -0.2324
  802WAT     H1 3282   1.337   1.891   0.362  0.8612 -0.0857  0.9305
  802WAT     H2 3283   1.232   1.815   0.441  0.0601  0.0271 -0.0033
  802WAT    EPW 3284   1.298   1.816   0.384  0.0209  0.0365 -0.0488
  803WAT      O 3285   2.614   3.818   1.333  0.1429 -0.5441  0.2567
  803WAT     H1 3286   2.547   3.782   1.275 -0.6784  0.4489  0.5698
  803WAT     H2 3287   2.683   3.752   1.332  0.0980 -0.6283 -1.7355
  803WAT    EPW 3288   2.614   3.804   1.326  0.0287 -0.4242  0.0353
  804WAT      O 3289   2.485   2.371   2.485 -0.1758  0.1033  0.3478
  804WAT     H1 3290   2.512   2.283   2.509  0.5397  0.2942  0.2909
  804WAT     H2 3291   2.530   2.387   2.402  0.2136  0.7495  0.6748
  804WAT    EPW 3292   2.495   2.362   2.477 -0.0300  0.2137  0.3834
  805WAT      O 3293   1.450   1.784   2.088 -0.4660 -0.6919  0.3430
  805WAT     H1 3294   1.376   1.763   2.145 -0.1050  0.3515  1.2386
  805WAT     H2 3295   1.489   1.699   2.067  0.3835 -1.0649  3.0236
  805WAT    EPW 3296   1.445   1.770   2.093 -0.3064 -0.6035  0.8147
  806WAT      O 3297   0.089   1.036   1.092 -0.0534  0.0847 -0.5151
  806WAT     H1 3298   0.055   0.946   1.093  0.5574 -0.1517 -0.3369
  806WAT     H2 3299   0.083   1.063   1.001  1.1537 -0.6962 -0.8518
  806WAT    EPW 3300   0.084   1.027   1.080  0.1864 -0.0495 -0.5360
  807WAT      O 3301   2.373   3.825   3.778  0.1220 -0.1374 -0.0414
  807WAT     H1 3302   2.284   3.802   3.752  0.1729 -1.8949  1.1454
  807WAT     H2 3303   2.426   3.811   3.699 -0.5150  0.0872 -0.5120
  807WAT    EPW 3304   2.368   3.820   3.764  0.0447 -0.3395  0.0531
  808WAT      O 3305   2.890   1.401   3.437 -0.6685  0.2721 -0.5922
  808WAT     H1 3306   2.978   1.365   3.451 -1.1946 -0.8381 -0.0202
  808WAT     H2 3307   2.839   1.328   3.402 -2.3871 -0.3579  2.7887
  808WAT    EPW 3308   2.895   1.387   3.434 -0.9645  0.0426 -0.0709
  809WAT      O 3309   1.734   1.555   3.212  0.2119 -0.2929 -0.2642
  809WAT     H1 3310   1.658   1.525   3.162 -0.1306  1.7554 -1.0607
  809WAT     H2 3311   1.727   1.650   3.212  2.8632 -0.0123 -0.4887
  809WAT    EPW 3312   1.723   1.563   3.206  0.5164  0.0143 -0.3989
  810WAT      O 3313   1.333   3.847   1.240 -0.0577 -0.2279 -0.1814
  810WAT     H1 3314   1.328   3.776   1.303 -1.5414 -0.5552 -0.6363
  810WAT     H2 3315   1.351   3.925   1.293 -0.0998 -0.6772  0.5030
  810WAT    EPW 3316   1.335   3.848   1.255 -0.2590 -0.3304 -0.1511
  811WAT      O 3317   2.831   2.582   0.817 -0.1049 -0.3694 -0.6118
  811WAT     H1 3318   2.782   2.531   0.753 -0.9772 -1.2124  0.6726
  811WAT     H2 3319   2.784   2.666   0.823  0.2500 -0.1072 -1.3821
  811WAT    EPW 3320   2.819   2.587   0.810 -0.1731 -0.4460 -0.5440
  812WAT      O 3321   2.270   2.703   1.086  0.3350  0.6243  0.2354
  812WAT     H1 3322   2.342   2.740   1.036  0.1329  1.0013  0.2206
  812WAT     H2 3323   2.255   2.616   1.048  1.5213  0.0727  0.9667
  812WAT    EPW 3324   2.277   2.696   1.075  0.4648  0.6013  0.3299
  813WAT      O 3325   0.181   1.315   1.573  0.1921  0.0272 -0.0212
  813WAT     H1 3326   0.211   1.390   1.624 -0.2708 -1.4374  2.5903
  813WAT     H2 3327   0.140   1.353   1.496  0.4382  2.4327  0.9504
  813WAT    EPW 3328   0.180   1.330   1.570  0.1635  0.1513  0.4514
  814WAT      O 3329   0.377   0.521   3.249  0.5860 -0.1880  0.1931
  814WAT     H1 3330   0.423   0.448   3.291  1.0351  0.6297  1.1635
  814WAT     H2 3331   0.289   0.518   3.285  1.3492  1.3616  2.3881
  814WAT    EPW 3332   0.371   0.511   3.259  0.7459  0.1242  0.6106
  815WAT      O 3333   0.152   0.986   2.415 -0.2346 -0.0593 -0.4191
  815WAT     H1 3334   0.129   0.958   2.504  1.4352 -1.3459 -0.3390
  815WAT     H2 3335   0.226   1.045   2.427 -0.5062  0.3848 -0.9107
  815WAT    EPW 3336   0.159   0.990   2.429 -0.0502 -0.1705 -0.4733
  816WAT      O 3337   3.095   3.249   2.061 -0.1211 -0.0463 -0.0611
  816WAT     H1 3338   3.172   3.229   2.114 -0.2599 -0.1847  0.0871
  816WAT     H2 3339   3.031   3.182   2.085  0.2433 -0.8770 -1.2878
  816WAT    EPW 3340   3.097   3.237   2.071 -0.0914 -0.1742 -0.2033
  817WAT      O 3341   3.007   0.156   3.807 -0.4508  0.0071 -0.3029
  817WAT     H1 3342   3.072   0.220   3.776 -1.1769  0.5785 -0.6599
  817WAT     H2 3343   3.057   0.074   3.812  0.1225  0.2573 -1.3521
  817WAT    EPW 3344   3.022   0.154   3.803 -0.4710  0.1154 -0.4884
  818WAT      O 3345   1.654   3.597   3.020  0.2239  0.1010  0.5048
  818WAT     H1 3346   1.726   3.652   2.989 -0.0719 -0.8451 -2.1684
  818WAT     H2 3347   1.615   3.647   3.092  0.9961  2.5798 -0.6654
  818WAT    EPW 3348   1.658   3.611   3.025  0.2867  0.3032 -0.0022
  819WAT      O 3349   1.609   2.601   3.278  0.5181 -0.1151 -0.1684
  819WAT     H1 3350   1.653   2.686   3.274  0.7110 -0.1289  1.2545
  819WAT     H2 3351   1.641   2.561   3.359 -0.1108 -1.2545 -0.4567
  819WAT    EPW 3352   1.619   2.607   3.288  0.4606 -0.2672 -0.0188
  820WAT      O 3353   1.458   0.859   3.148  0.1748 -0.2186  0.1588
  820WAT     H1 3354   1.383   0.895   3.197  0.2009  1.0606 -0.6990
  820WAT     H2 3355   1.534   0.882   3.201  0.0278 -0.7934  0.6220
  820WAT    EPW 3356   1.458   0.867   3.162  0.1588 -0.1257  0.1067
  821WAT      O 3357   1.987   1.469   3.155  0.2440  0.3610 -0.0035
  821WAT     H1 3358   1.908   1.515   3.184  0.2901 -0.0165  0.7458
  821WAT     H2 3359   1.960   1.423   3.076 -0.4728 -0.2859  0.5955
  821WAT    EPW 3360   1.973   1.469   3.149  0.1555  0.2259  0.1744
  822WAT      O 3361   2.634   0.402   2.231  0.2562  0.0333 -0.2617
  822WAT     H1 3362   2.590   0.348   2.297 -0.4142 -0.0275 -0.7572
  822WAT     H2 3363   2.583   0.390   2.151 -0.0854  1.6096 -0.3211
  822WAT    EPW 3364   2.621   0.393   2.229  0.1227  0.2332 -0.3349
  823WAT      O 3365   1.734   3.133   2.762  0.4486 -0.1849  0.1519
  823WAT     H1 3366   1.809   3.119   2.704 -0.2259  1.5991 -1.2243
  823WAT     H2 3367   1.704   3.221   2.742 -1.2815 -0.3941  1.5652
  823WAT    EPW 3368   1.740   3.143   2.752  0.1314  0.0228  0.1568
  824WAT      O 3369   0.563   2.414   0.020 -0.2707  0.1445  0.2145
  824WAT     H1 3370   0.508   2.419   0.098 -0.7243 -0.5412 -0.0514
  824WAT     H2 3371   0.645   2.456   0.045  0.2766 -1.6602  1.6412
  824WAT    EPW 3372   0.567   2.420   0.033 -0.2583 -0.1840  0.3676
  825WAT      O 3373   3.622   3.919   2.567  0.0709  0.2285  0.1064
  825WAT     H1 3374   3.576   3.988   2.615  0.4640 -0.3299  1.3064
  825WAT     H2 3375   3.688   3.887   2.628  1.0652 -0.0226 -1.0626
  825WAT    EPW 3376   3.625   3.924   2.581  0.2539  0.1217  0.1105
  826WAT      O 3377   1.047   4.382   2.389  0.0480  0.2087 -0.2221
  826WAT     H1 3378   1.001   4.462   2.365  2.0305  0.9448 -1.7264
  826WAT     H2 3379   1.060   4.390   2.484 -0.2694  1.3901 -0.2632
  826WAT    EPW 3380   1.042   4.394   2.399  0.2676  0.4616 -0.4259
  827WAT      O 3381   1.519   0.962   3.531 -0.0075  0.0565 -0.1303
  827WAT     H1 3382   1.458   0.989   3.600  0.4678  1.0001 -0.0609
  827WAT     H2 3383   1.465   0.959   3.452 -0.4194 -0.4122  0.1604
  827WAT    EPW 3384   1.503   0.966   3.530  0.0009  0.1191 -0.0828
  828WAT      O 3385   3.086   0.919   3.556  0.3347 -0.4532  0.2828
  828WAT     H1 3386   3.035   0.996   3.583 -1.5836 -1.6940  0.3843
  828WAT     H2 3387   3.065   0.853   3.622 -0.9914 -2.2007 -1.7847
  828WAT    EPW 3388   3.076   0.920   3.569 -0.0932 -0.8474  0.0235
  829WAT      O 3389   0.299   0.034   2.584  0.3912 -0.5797  0.5887
  829WAT     H1 3390   0.368   0.099   2.590  0.3315 -0.4034 -0.3615
  829WAT     H2 3391   0.309  -0.021   2.661  0.1918  0.7931  1.6220
  829WAT    EPW 3392   0.309   0.035   2.595  0.3570 -0.3754  0.5997
  830WAT      O 3393   2.724   0.108   1.649 -0.8016 -0.0847  0.1812
  830WAT     H1 3394   2.782   0.044   1.608  0.3931  0.1483  1.4138
  830WAT     H2 3395   2.782   0.183   1.667 -1.9447  0.9545 -0.3404
  830WAT    EPW 3396   2.740   0.110   1.646 -0.7948  0.0831  0.2750
  831WAT      O 3397   3.292   0.519   3.388 -0.1013  0.1949 -0.1015
  831WAT     H1 3398   3.283   0.550   3.298  0.1068  3.3163  0.8460
  831WAT     H2 3399   3.205   0.533   3.427 -0.4000 -1.8174  0.0461
  831WAT    EPW 3400   3.279   0.525   3.381 -0.1132  0.3412  0.0429
  832WAT      O 3401   1.482   1.560   0.526  0.1994  0.0435 -0.6744
  832WAT     H1 3402   1.479   1.573   0.431 -0.7847 -0.2384 -0.6943
  832WAT     H2 3403   1.393   1.534   0.549  0.1214  1.2576  0.5009
  832WAT    EPW 3404   1.470   1.558   0.517  0.0593  0.1665 -0.5220
  833WAT      O 3405   1.350   3.843   1.690  0.8377 -0.0852  0.2637
  833WAT     H1 3406   1.426   3.834   1.634 -0.7162 -2.2693 -1.6635
  833WAT     H2 3407   1.275   3.841   1.631 -0.8288  3.6641  1.8771
  833WAT    EPW 3408   1.350   3.841   1.675  0.4129  0.1212  0.2223
  834WAT      O 3409   3.108   1.584   0.614  0.1111  0.0992 -0.4840
  834WAT     H1 3410   3.101   1.488   0.607  0.3045 -0.1900  2.1395
  834WAT     H2 3411   3.077   1.603   0.703  1.6517  2.3080 -0.3444
  834WAT    EPW 3412   3.103   1.574   0.625  0.3398  0.3524 -0.1196
  835WAT      O 3413   0.754   2.009   0.005 -0.0951 -0.0533 -0.6436
  835WAT     H1 3414   0.685   1.990  -0.060  0.7460 -0.9069 -1.3216
  835WAT     H2 3415   0.835   2.010  -0.047  0.5855 -0.6707  0.3802
  835WAT    EPW 3416   0.756   2.006  -0.011  0.1056 -0.2473 -0.5980
  836WAT      O 3417   1.133   2.492   2.637 -0.2672  0.0902 -0.4498
  836WAT     H1 3418   1.166   2.407   2.606  1.0752  0.3030  0.3202
  836WAT     H2 3419   1.097   2.534   2.559 -1.5094 -1.4183 -0.7408
  836WAT    EPW 3420   1.132   2.486   2.623 -0.2540 -0.0807 -0.3867
  837WAT      O 3421   3.168   2.854   1.565  0.1908  0.0515 -0.0699
  837WAT     H1 3422   3.175   2.947   1.585 -0.8640  0.2811 -0.6791
  837WAT     H2 3423   3.253   2.830   1.527  1.2425  0.2409  2.0437
  837WAT    EPW 3424   3.180   2.863   1.563  0.1904  0.1068  0.1285
  838WAT      O 3425   0.630   2.010   2.961 -0.0061  0.2441  0.5062
  838WAT     H1 3426   0.613   1.928   2.916  1.3516  0.5354 -0.5922
  838WAT     H2 3427   0.705   1.991   3.018 -1.1109  0.1373  2.0021
  838WAT    EPW 3428   0.638   1.997   2.963  0.0272  0.2685  0.5586
  839WAT      O 3429   1.588   0.080   2.727  0.3404 -0.4375  0.0874
  839WAT     H1 3430   1.568   0.173   2.733  0.2681 -0.3347 -1.3841
  839WAT     H2 3431   1.508   0.036   2.754  0.5419 -0.0910  1.2914
  839WAT    EPW 3432   1.575   0.086   2.731  0.3575 -0.3783  0.0521
  840WAT      O 3433   3.571   1.544   2.798 -0.0376  0.2479 -0.4126
  840WAT     H1 3434   3.478   1.536   2.819 -0.0333  0.1436 -0.4326
  840WAT     H2 3435   3.594   1.632   2.828  0.2346 -0.2946  1.0916
  840WAT    EPW 3436   3.562   1.555   2.805 -0.0011  0.1626 -0.2168
  841WAT      O 3437   0.092   1.889   1.824  0.1183  0.2155 -0.4920
  841WAT     H1 3438   0.018   1.916   1.771 -0.0360  1.9888  0.5480
  841WAT     H2 3439   0.053   1.855   1.905  0.4085  0.4036 -0.2676
  841WAT    EPW 3440   0.077   1.888   1.828  0.1362  0.4742 -0.3252
  842WAT      O 3441   1.944   3.937   1.156 -0.2745 -0.2856 -0.7068
  842WAT     H1 3442   1.959   4.021   1.199 -1.6211 -0.5800  0.4097
  842WAT     H2 3443   2.029   3.914   1.118  0.4719  0.9076  0.1633
  842WAT    EPW 3444   1.957   3.945   1.157 -0.3537 -0.1671 -0.4448
  843WAT      O 3445   2.150   0.230   3.801 -0.3864  0.1221 -0.2324
  843WAT     H1 3446   2.187   0.156   3.850  2.4053  0.4746 -1.6065
  843WAT     H2 3447   2.147   0.301   3.864  1.9475  0.2146 -0.1063
  843WAT    EPW 3448   2.155   0.230   3.816  0.2896  0.1808 -0.3970
  844WAT      O 3449   0.148   4.020   1.514 -0.4523 -0.6191 -0.5402
  844WAT     H1 3450   0.177   4.051   1.428 -1.8159 -1.2944 -1.2863
  844WAT     H2 3451   0.081   3.955   1.494 -0.9653 -0.6178  1.0468
  844WAT    EPW 3452   0.143   4.016   1.500 -0.6998 -0.7080 -0.4293
  845WAT      O 3453   2.972   2.186   2.869 -0.3763  0.2076  0.4063
  845WAT     H1 3454   3.017   2.154   2.790 -0.5551  0.2292  0.2926
  845WAT     H2 3455   3.035   2.243   2.912 -0.2402  0.1136  0.3317
  845WAT    EPW 3456   2.986   2.189   2.864 -0.3820  0.1981  0.3815
  846WAT      O 3457   3.232   3.414   2.861 -0.0579 -0.4152 -0.3474
  846WAT     H1 3458   3.241   3.383   2.771 -2.2076 -0.1161 -0.7180
  846WAT     H2 3459   3.202   3.337   2.910  2.0386 -0.8404  0.3752
  846WAT    EPW 3460   3.229   3.400   2.856 -0.0650 -0.4319 -0.3010
  847WAT      O 3461   1.848   3.001   2.997 -0.2084  0.5314 -0.7277
  847WAT     H1 3462   1.893   2.935   2.943 -2.4287 -0.9253 -0.9373
  847WAT     H2 3463   1.801   3.055   2.934 -0.5261  0.6197 -0.4201
  847WAT    EPW 3464   1.848   2.999   2.981 -0.5431  0.3509 -0.7148
  848WAT      O 3465   2.727   3.791   3.740 -0.1884  0.8109  0.3385
  848WAT     H1 3466   2.809   3.746   3.723  0.1276  1.0397  1.2191
  848WAT     H2 3467   2.713   3.846   3.663 -0.4762 -0.6097 -0.6628
  848WAT    EPW 3468   2.736   3.792   3.728 -0.1847  0.6537  0.3226
  849WAT      O 3469   2.636   3.582   0.496  0.0961  0.2118 -0.2520
  849WAT     H1 3470   2.612   3.510   0.438 -0.1735  0.0127  0.1018
  849WAT     H2 3471   2.716   3.618   0.458  0.3216 -0.3746 -0.3500
  849WAT    EPW 3472   2.643   3.577   0.483  0.0903  0.1082 -0.2182
  850WAT      O 3473   2.743   4.183   1.419  0.2029 -0.3415 -0.0366
  850WAT     H1 3474   2.677   4.165   1.351 -0.9532 -1.1069  1.2301
  850WAT     H2 3475   2.813   4.229   1.373  0.5688 -2.8635 -2.2700
  850WAT    EPW 3476   2.743   4.187   1.404  0.0987 -0.7751 -0.1641
  851WAT      O 3477   1.703   0.898   3.276 -0.1016 -0.1930  0.1934
  851WAT     H1 3478   1.725   0.845   3.353 -0.0868 -0.0859  0.2630
  851WAT     H2 3479   1.735   0.985   3.297  0.2544 -0.2546 -0.1020
  851WAT    EPW 3480   1.710   0.903   3.289 -0.0527 -0.1870  0.1636
  852WAT      O 3481   1.312   4.099   0.020  0.2531  0.6643  0.3568
  852WAT     H1 3482   1.253   4.171  -0.002  0.4635  0.9845  0.8033
  852WAT     H2 3483   1.399   4.133  -0.001  0.3956  0.7226  1.0011
  852WAT    EPW 3484   1.316   4.113   0.015  0.2996  0.7142  0.5007
  853WAT      O 3485   2.211   1.022   1.308  0.1171  0.0847  0.2789
  853WAT     H1 3486   2.232   1.107   1.346  0.2059 -0.1533  0.7667
  853WAT     H2 3487   2.289   0.998   1.258 -0.1943  0.6361 -0.5051
  853WAT    EPW 3488   2.224   1.030   1.306  0.0878  0.1260  0.2398
  854WAT      O 3489   3.346   2.123   3.679 -0.3057  0.4221  0.2662
  854WAT     H1 3490   3.261   2.141   3.719 -0.8512  0.7922 -1.0291
  854WAT     H2 3491   3.325   2.072   3.600  0.7179  0.0580  0.2153
  854WAT    EPW 3492   3.332   2.119   3.674 -0.2427  0.4229  0.0886
  855WAT      O 3493   2.613   3.909   0.153 -0.2317  0.4340  0.2733
  855WAT     H1 3494   2.687   3.948   0.199  0.7149 -1.6726  0.6348
  855WAT     H2 3495   2.650   3.877   0.071 -0.7540 -0.5834  0.4311
  855WAT    EPW 3496   2.627   3.910   0.149 -0.1757  0.0220  0.3418
  856WAT      O 3497   0.582   0.992   3.278  0.0526  0.0730  0.4556
  856WAT     H1 3498   0.617   0.937   3.208  0.4732 -0.2068  0.8797
  856WAT     H2 3499   0.521   0.934   3.325 -0.7120  0.4467 -0.0544
  856WAT    EPW 3500   0.579   0.977   3.275  0.0072  0.0854  0.4443
  857WAT      O 3501   0.175   3.527   3.181  0.4927  0.2831  0.0212
  857WAT     H1 3502   0.140   3.539   3.093 -0.8406  1.9754  0.7078
  857WAT     H2 3503   0.098   3.534   3.238  1.0505 -2.4340  1.2834
  857WAT    EPW 3504   0.160   3.530   3.177  0.3904  0.1479  0.2782
  858WAT      O 3505   0.579   1.833   3.366  0.2739  0.0644  0.3210
  858WAT     H1 3506   0.524   1.873   3.298 -1.0317  1.0479  1.9004
  858WAT     H2 3507   0.542   1.746   3.377 -0.0576  0.2062  0.3606
  858WAT    EPW 3508   0.567   1.827   3.358  0.0580  0.2128  0.5345
  859WAT      O 3509   2.240   3.514   1.814  0.2486  0.5702  0.3299
  859WAT     H1 3510   2.154   3.552   1.833 -0.0386  0.4905 -0.7043
  859WAT     H2 3511   2.248   3.522   1.719  0.2915 -1.6770  0.0855
  859WAT    EPW 3512   2.230   3.520   1.804  0.2164  0.2633  0.1612
  860WAT      O 3513   2.745   2.829   0.677 -0.5107 -0.0537 -0.4893
  860WAT     H1 3514   2.662   2.852   0.636 -0.4064 -0.1812 -0.7740
  860WAT     H2 3515   2.770   2.908   0.726 -0.0657  0.5267 -1.6038
  860WAT    EPW 3516   2.738   2.843   0.678 -0.4383  0.0061 -0.6738
  861WAT      O 3517   1.814   4.329   3.828  0.1795 -0.0598 -0.2096
  861WAT     H1 3518   1.795   4.393   3.896  1.5321  1.1281 -0.8737
  861WAT     H2 3519   1.825   4.382   3.748  1.2150 -1.1247 -0.8073
  861WAT    EPW 3520   1.813   4.345   3.826  0.4945 -0.0436 -0.3760
  862WAT      O 3521   0.961   1.108   0.264 -0.7995 -0.5856 -0.2680
  862WAT     H1 3522   0.878   1.154   0.252 -0.4199  0.2774  0.3053
  862WAT     H2 3523   1.021   1.175   0.298 -0.8018 -1.9359  2.7200
  862WAT    EPW 3524   0.958   1.123   0.267 -0.7497 -0.6499  0.2017
  863WAT      O 3525   0.417   3.182   0.128  0.0925  0.6651 -0.3668
  863WAT     H1 3526   0.511   3.165   0.137  0.2529  1.4364 -0.5165
  863WAT     H2 3527   0.390   3.129   0.053  0.0253 -0.9529  0.7498
  863WAT    EPW 3528   0.426   3.173   0.119  0.1048  0.5534 -0.2393
  864WAT      O 3529   3.358   1.360   3.046  0.1896 -0.7474  0.5036
  864WAT     H1 3530   3.328   1.382   3.135  2.7816  2.0295  0.8610
  864WAT     H2 3531   3.443   1.318   3.059  0.3421 -0.8150 -0.6506
  864WAT    EPW 3532   3.365   1.358   3.059  0.5516 -0.3900  0.3985
  865WAT      O 3533   1.973   1.383   0.503 -0.0719  0.8307 -0.1183
  865WAT     H1 3534   1.887   1.399   0.543 -1.1416 -0.3139 -1.8315
  865WAT     H2 3535   2.033   1.437   0.554 -1.6541  0.9937  1.7119
  865WAT    EPW 3536   1.970   1.392   0.515 -0.4217  0.7013 -0.1029
  866WAT      O 3537   2.782   1.321   2.811  0.0164 -0.0723  0.3437
  866WAT     H1 3538   2.816   1.233   2.827  0.6346  0.1132  0.0828
  866WAT     H2 3539   2.852   1.380   2.840 -0.1625  0.3207 -0.0040
  866WAT    EPW 3540   2.796   1.317   2.817  0.0743  0.0040  0.2635
  867WAT      O 3541   2.226   1.429   2.424 -0.4493  0.0559 -0.0734
  867WAT     H1 3542   2.185   1.368   2.363 -1.0555  0.6121 -0.2269
  867WAT     H2 3543   2.160   1.443   2.492 -0.7293  1.3515 -0.5878
  867WAT    EPW 3544   2.212   1.423   2.425 -0.5662  0.3001 -0.1615
  868WAT      O 3545   1.912   0.190   3.352 -0.2946  0.0219 -0.2705
  868WAT     H1 3546   1.876   0.162   3.436 -0.7128  0.1431 -0.4066
  868WAT     H2 3547   1.912   0.285   3.356  1.1950  0.0279  0.2174
  868WAT    EPW 3548   1.907   0.199   3.363 -0.1533  0.0386 -0.2241
  869WAT      O 3549   0.559   2.595   2.166 -0.0377  0.5254  0.4314
  869WAT     H1 3550   0.605   2.554   2.240 -0.2535  0.0059  0.2863
  869WAT     H2 3551   0.626   2.609   2.100  0.0491  0.4481  0.5027
  869WAT    EPW 3552   0.574   2.591   2.167 -0.0547  0.4467  0.4217
  870WAT      O 3553   2.025   1.678   1.652 -0.2100  0.1268 -0.5073
  870WAT     H1 3554   2.087   1.658   1.582  1.4765  1.4970  0.5205
  870WAT     H2 3555   1.940   1.679   1.608  0.5789 -0.8484 -2.1566
  870WAT    EPW 3556   2.022   1.676   1.637  0.1165  0.1789 -0.5892
  871WAT      O 3557   3.001   2.637   2.305 -0.2990  0.1182  0.2284
  871WAT     H1 3558   2.991   2.703   2.373  0.1115 -1.6141  2.0704
  871WAT     H2 3559   2.996   2.553   2.352  3.2008 -1.1609 -1.3493
  871WAT    EPW 3560   2.999   2.635   2.320  0.2167 -0.2790  0.2633
  872WAT      O 3561   1.494   4.103   3.335 -0.1485  0.4859 -0.0433
  872WAT     H1 3562   1.423   4.081   3.395 -0.7281  1.4600 -0.3573
  872WAT     H2 3563   1.515   4.020   3.292 -1.8727  0.3948 -0.7704
  872WAT    EPW 3564   1.488   4.089   3.337 -0.4523  0.6024 -0.1806
  873WAT      O 3565   3.162   2.995   1.841  0.2828  0.1072 -0.4812
  873WAT     H1 3566   3.236   2.941   1.816  0.2774 -0.0855 -0.0867
  873WAT     H2 3567   3.188   3.035   1.924  0.2606  0.6553 -0.7330
  873WAT    EPW 3568   3.175   2.993   1.849  0.2792  0.1540 -0.4624
  874WAT      O 3569   0.088   1.191   0.860 -0.2432  0.0597  0.2602
  874WAT     H1 3570   0.030   1.170   0.787 -2.0303  1.3685  1.2385
  874WAT     H2 3571   0.176   1.187   0.823 -1.1370  1.7666 -2.2716
  874WAT    EPW 3572   0.092   1.187   0.846 -0.5968  0.4575  0.0553
  875WAT      O 3573   3.674   2.032   1.434 -0.3485  0.1775  0.0681
  875WAT     H1 3574   3.679   2.125   1.458  0.2912 -0.3274  2.1407
  875WAT     H2 3575   3.594   2.025   1.383 -0.8597  1.7325  0.5787
  875WAT    EPW 3576   3.664   2.044   1.430 -0.3315  0.3160  0.4088
  876WAT      O 3577   1.706   1.542   0.260  0.2446 -0.6677 -0.5036
  876WAT     H1 3578   1.776   1.602   0.282  0.0871 -0.9892  0.9750
  876WAT     H2 3579   1.645   1.594   0.207  1.0976 -0.1219 -0.9698
  876WAT    EPW 3580   1.707   1.556   0.256  0.3363 -0.6381 -0.3701
  877WAT      O 3581   2.251   1.054   2.578 -0.2484 -0.0441  0.0237
  877WAT     H1 3582   2.320   1.119   2.574  0.4647 -0.7408  0.8074
  877WAT     H2 3583   2.179   1.098   2.623  0.1136  0.3004  0.2666
  877WAT    EPW 3584   2.250   1.068   2.583 -0.1066 -0.0906  0.1591
  878WAT      O 3585   1.536   2.027   2.767  0.3715 -0.0636 -0.3320
  878WAT     H1 3586   1.601   1.989   2.708 -0.4209  0.1061 -1.3346
  878WAT     H2 3587   1.549   2.121   2.760 -0.9681  0.0503 -1.7321
  878WAT    EPW 3588   1.546   2.034   2.759  0.0903 -0.0262 -0.6489
  879WAT      O 3589   3.433   0.915   1.415  0.5631  0.1244  0.3331
  879WAT     H1 3590   3.527   0.917   1.432  0.7630 -0.7369 -0.6078
  879WAT     H2 3591   3.393   0.904   1.501  1.2653  1.2861  0.8358
  879WAT    EPW 3592   3.440   0.914   1.429  0.6821  0.1640  0.2753
  880WAT      O 3593   3.084   1.268   1.974  0.1122 -0.7783  0.4252
  880WAT     H1 3594   3.047   1.315   1.900  1.2800 -0.1451  0.2090
  880WAT     H2 3595   3.011   1.218   2.011 -0.8005  0.0008 -0.2857
  880WAT    EPW 3596   3.070   1.268   1.969  0.1458 -0.5920  0.3029
  881WAT      O 3597   2.477   1.909   0.133  0.2682  0.0770  0.2020
  881WAT     H1 3598   2.548   1.852   0.161  1.0693  1.3796  0.9737
  881WAT     H2 3599   2.421   1.918   0.210  0.5750  0.9057  0.3489
  881WAT    EPW 3600   2.479   1.903   0.147  0.4143  0.3581  0.3231
  882WAT      O 3601   2.224   1.912   2.933 -0.3946  0.3796  0.1976
  882WAT     H1 3602   2.246   1.999   2.966 -1.8313  1.5136 -1.5835
  882WAT     H2 3603   2.306   1.864   2.934  0.1683  1.2978  2.4745
  882WAT    EPW 3604   2.238   1.917   2.937 -0.5099  0.6503  0.2630
  883WAT      O 3605   1.696   0.193   0.491  0.1907  0.1359 -0.3739
  883WAT     H1 3606   1.761   0.253   0.454 -0.2265 -0.7654 -2.7292
  883WAT     H2 3607   1.624   0.193   0.428 -1.8303  0.5362  1.8086
  883WAT    EPW 3608   1.695   0.201   0.478 -0.1309  0.0698 -0.3967
  884WAT      O 3609   1.868   0.394   3.836 -0.0378 -0.0103 -0.9556
  884WAT     H1 3610   1.906   0.419   3.752  3.1668  2.7317  1.0648
  884WAT     H2 3611   1.807   0.465   3.856 -1.6389 -1.2090 -1.3224
  884WAT    EPW 3612   1.865   0.406   3.828  0.1737  0.1932 -0.7375
  885WAT      O 3613   0.304   1.611   2.532 -0.5852  0.2213  0.2739
  885WAT     H1 3614   0.393   1.639   2.511 -0.8524  1.9150  1.1976
  885WAT     H2 3615   0.277   1.557   2.458  1.0174  0.1050 -0.2566
  885WAT    EPW 3616   0.312   1.608   2.520 -0.4090  0.4293  0.3258
  886WAT      O 3617   2.949   3.914   1.451  0.3081 -0.2901  0.1149
  886WAT     H1 3618   2.966   3.965   1.371  0.0824  0.6067  0.6233
  886WAT     H2 3619   2.854   3.915   1.460  0.3609  0.0999  0.6952
  886WAT    EPW 3620   2.939   3.921   1.441  0.2853 -0.1204  0.2585
  887WAT      O 3621   2.822   0.310   3.042  0.4003 -0.5308  0.2582
  887WAT     H1 3622   2.839   0.312   2.948 -0.2597 -0.1390  0.1427
  887WAT     H2 3623   2.902   0.274   3.080  0.8149 -0.3396 -0.4203
  887WAT    EPW 3624   2.835   0.306   3.034  0.3679 -0.4539  0.1535
  888WAT      O 3625   0.363   4.122   0.340 -0.5518  0.0099  0.9450
  888WAT     H1 3626   0.430   4.187   0.323 -0.1289 -0.3444  1.2278
  888WAT     H2 3627   0.365   4.065   0.262  0.8451 -1.1504  1.7654
  888WAT    EPW 3628   0.372   4.123   0.327 -0.3118 -0.1898  1.0905
  889WAT      O 3629   3.343   0.058   2.857  0.4300 -0.1764  0.3502
  889WAT     H1 3630   3.325   0.112   2.780 -0.4862  0.2345  0.8419
  889WAT     H2 3631   3.433   0.080   2.881  0.6304 -0.1039 -0.4331
  889WAT    EPW 3632   3.352   0.068   2.850  0.3356 -0.1126  0.3117
  890WAT      O 3633   1.929   0.407   0.809 -0.8802 -0.1405  0.3481
  890WAT     H1 3634   1.954   0.361   0.889 -1.0993 -0.1918  0.3866
  890WAT     H2 3635   2.012   0.430   0.768 -0.7383 -1.9804 -0.4912
  890WAT    EPW 3636   1.943   0.404   0.814 -0.8904 -0.3899  0.2424
  891WAT      O 3637   0.657   0.231   0.807 -0.2294  0.3273 -0.2503
  891WAT     H1 3638   0.609   0.168   0.861 -2.9254  0.3220 -2.4656
  891WAT     H2 3639   0.611   0.314   0.821 -0.0537  0.6329 -1.3975
  891WAT    EPW 3640   0.645   0.234   0.816 -0.5618  0.3669 -0.6938
  892WAT      O 3641   3.165   2.648   0.773  0.1157  0.6103  0.5331
  892WAT     H1 3642   3.069   2.645   0.777  0.1266  0.0228  0.4477
  892WAT     H2 3643   3.190   2.570   0.723  0.6628  0.4708  1.0077
  892WAT    EPW 3644   3.156   2.637   0.767  0.1893  0.5144  0.5845
  893WAT      O 3645   2.365   3.728   3.041 -0.0184  0.4739 -0.7532
  893WAT     H1 3646   2.425   3.758   2.972 -0.6932 -0.1075 -1.6035
  893WAT     H2 3647   2.290   3.693   2.994 -0.6085  0.3119  0.2936
  893WAT    EPW 3648   2.363   3.727   3.026 -0.1853  0.3759 -0.7273
  894WAT      O 3649   2.487   0.751   0.225 -0.2051 -0.1182  0.5254
  894WAT     H1 3650   2.554   0.742   0.293 -0.2906  1.5142  0.8611
  894WAT     H2 3651   2.504   0.837   0.186 -0.5920 -0.7251 -1.0686
  894WAT    EPW 3652   2.498   0.761   0.229 -0.2674  0.0170  0.3595
  895WAT      O 3653   0.167   3.473   3.642 -0.3026  0.8052 -0.7361
  895WAT     H1 3654   0.231   3.494   3.574  0.6583  1.0048  0.1966
  895WAT     H2 3655   0.105   3.413   3.600  1.6728 -1.0692 -1.1399
  895WAT    EPW 3656   0.167   3.467   3.628  0.0847  0.5843 -0.6663
  896WAT      O 3657   1.244   3.421   0.521  0.1611 -0.6955 -0.2955
  896WAT     H1 3658   1.179   3.490   0.507  0.1085 -0.8661 -0.9266
  896WAT     H2 3659   1.299   3.455   0.591  1.0366  0.6775 -1.5732
  896WAT    EPW 3660   1.243   3.435   0.528  0.2696 -0.5369 -0.5472
  897WAT      O 3661   1.920   2.343   3.553  0.3028  0.3306 -0.0350
  897WAT     H1 3662   1.967   2.259   3.550 -1.3492 -0.6818  0.6398
  897WAT     H2 3663   1.870   2.338   3.635 -2.4274  0.4920 -1.5966
  897WAT    EPW 3664   1.920   2.331   3.563 -0.2752  0.2184 -0.1520
  898WAT      O 3665   2.212   0.016   2.834 -0.4786 -0.6033 -0.3131
  898WAT     H1 3666   2.204   0.110   2.843  1.5317 -0.3440 -0.6657
  898WAT     H2 3667   2.214  -0.017   2.924  2.9816  0.2152  0.0749
  898WAT    EPW 3668   2.211   0.024   2.847  0.2429 -0.4612 -0.3084
  899WAT      O 3669   2.706   0.849   3.744 -0.2348 -0.2003  0.3333
  899WAT     H1 3670   2.719   0.755   3.749  1.7768  0.0348  0.2105
  899WAT     H2 3671   2.634   0.867   3.805  0.4487 -1.6177  1.6107
  899WAT    EPW 3672   2.698   0.839   3.753  0.1207 -0.3563  0.4856
  900WAT      O 3673   0.146   3.891   2.150  0.5939  0.2403  0.0921
  900WAT     H1 3674   0.129   3.929   2.237  0.4417 -0.3652  0.3284
  900WAT     H2 3675   0.157   3.798   2.166 -1.5391 -0.2318 -0.7805
  900WAT    EPW 3676   0.145   3.884   2.164  0.2925  0.0981  0.0082
  901WAT      O 3677   2.592   0.827   3.042 -0.1252 -0.0963  0.1601
  901WAT     H1 3678   2.544   0.886   2.983  2.3477  1.2267 -0.6689
  901WAT     H2 3679   2.669   0.800   2.992  0.9050 -0.7538  1.9968
  901WAT    EPW 3680   2.596   0.831   3.027  0.3368 -0.0085  0.2930
  902WAT      O 3681   0.673   1.319   0.981  0.4189  0.5778 -0.2068
  902WAT     H1 3682   0.681   1.337   1.075  1.0182 -0.4950 -0.0339
  902WAT     H2 3683   0.580   1.335   0.962  0.2604  0.6581  0.6008
  902WAT    EPW 3684   0.662   1.323   0.991  0.4770  0.4469 -0.0775
  903WAT      O 3685   1.214   1.484   0.538  0.1099 -0.3072 -0.2934
  903WAT     H1 3686   1.160   1.436   0.601  0.5847 -0.8965 -0.3294
  903WAT     H2 3687   1.165   1.565   0.521 -0.4445 -0.5433  0.1622
  903WAT    EPW 3688   1.200   1.489   0.544  0.0994 -0.4161 -0.2381
  904WAT      O 3689   1.991   0.459   3.295  0.1476 -0.0569 -0.2339
  904WAT     H1 3690   1.980   0.494   3.207  0.5681  0.8199  0.0521
  904WAT     H2 3691   2.056   0.516   3.336  0.4162 -0.8227  0.4479
  904WAT    EPW 3692   1.998   0.471   3.289  0.2385 -0.0423 -0.1063
  905WAT      O 3693   2.918   0.786   3.325  0.1182 -0.7153 -0.3007
  905WAT     H1 3694   2.966   0.823   3.399  2.2421 -1.4083 -1.2357
  905WAT     H2 3695   2.826   0.802   3.345  0.7464  1.9159  0.9865
  905WAT    EPW 3696   2.912   0.793   3.337  0.4812 -0.4597 -0.2542
  906WAT      O 3697   0.171   0.368   3.654 -0.3887 -0.1725  0.3346
  906WAT     H1 3698   0.082   0.333   3.657  0.4835 -2.5086  0.5313
  906WAT     H2 3699   0.223   0.298   3.615  1.0849  1.8550 -1.5991
  906WAT    EPW 3700   0.166   0.354   3.649 -0.0793 -0.2132  0.1055
  907WAT      O 3701   0.360   2.183   1.557  0.5472 -0.7755  0.1844
  907WAT     H1 3702   0.319   2.104   1.593  1.6960 -1.7355 -0.5278
  907WAT     H2 3703   0.392   2.230   1.634  0.7361 -1.5214  0.5786
  907WAT    EPW 3704   0.359   2.179   1.572  0.7236 -1.0005  0.1424
  908WAT      O 3705   3.582   1.981   3.248  0.1280  0.6701  0.0703
  908WAT     H1 3706   3.492   1.976   3.214  0.4170  1.0614 -0.7840
  908WAT     H2 3707   3.625   2.046   3.192  1.4757 -0.8753 -0.7699
  908WAT    EPW 3708   3.576   1.989   3.236  0.3439  0.5179 -0.1532
  909WAT      O 3709   2.209   0.982   2.153 -0.6713  0.2824  0.5550
  909WAT     H1 3710   2.239   0.900   2.190 -0.9429 -0.2569 -0.3721
  909WAT     H2 3711   2.261   0.993   2.073 -1.2407  0.5626  0.2148
  909WAT    EPW 3712   2.220   0.973   2.147 -0.7822  0.2482  0.3878
  910WAT      O 3713   0.593   1.247   0.589 -0.5000 -0.2812 -0.0196
  910WAT     H1 3714   0.675   1.273   0.633 -0.6123  0.1626 -0.0672
  910WAT     H2 3715   0.565   1.326   0.543 -0.4934 -0.6858 -0.7272
  910WAT    EPW 3716   0.600   1.261   0.589 -0.5139 -0.2760 -0.1192
  911WAT      O 3717   2.713   4.041   2.508 -0.0198  0.5357 -0.4007
  911WAT     H1 3718   2.727   4.077   2.420  0.6295 -0.2539 -0.6277
  911WAT     H2 3719   2.747   4.110   2.566  1.7424  0.1126 -0.8497
  911WAT    EPW 3720   2.720   4.055   2.504  0.2983  0.3757 -0.4899
  912WAT      O 3721   0.989   2.786   3.018  0.6784 -0.1962  0.2249
  912WAT     H1 3722   0.993   2.700   2.975 -0.5392 -0.3871  0.4493
  912WAT     H2 3723   1.050   2.779   3.092  1.4177 -0.4798 -0.3951
  912WAT    EPW 3724   0.998   2.773   3.022  0.6153 -0.2588  0.1728
  913WAT      O 3725   3.615   2.446   3.167  0.4130 -0.0593 -0.2160
  913WAT     H1 3726   3.623   2.538   3.193  2.8293 -0.1555 -0.4556
  913WAT     H2 3727   3.673   2.399   3.226 -1.1744 -1.5650  0.2397
  913WAT    EPW 3728   3.623   2.452   3.178  0.5224 -0.2706 -0.1875
  914WAT      O 3729   3.675   2.138   0.487 -0.3272 -0.0293  0.0502
  914WAT     H1 3730   3.640   2.155   0.575  0.5257 -0.3954  0.4775
  914WAT     H2 3731   3.644   2.051   0.464  1.8871 -1.2605  1.3040
  914WAT    EPW 3732   3.667   2.129   0.496  0.0773 -0.2400  0.2719
  915WAT      O 3733   3.506   1.323   2.187  0.1661 -0.3280 -0.0386
  915WAT     H1 3734   3.433   1.274   2.225 -0.4615  1.1319  0.6950
  915WAT     H2 3735   3.583   1.272   2.210 -0.4376 -0.7801  1.0452
  915WAT    EPW 3736   3.507   1.310   2.195  0.0037 -0.1951  0.2011
  916WAT      O 3737   1.809   1.106   1.012  0.2079  0.7004  0.1718
  916WAT     H1 3738   1.874   1.045   1.048  0.5581  0.8331 -0.2324
  916WAT     H2 3739   1.729   1.054   1.003  0.0942  0.6743  1.1928
  916WAT    EPW 3740   1.807   1.091   1.016  0.2391  0.7145  0.2532
  917WAT      O 3741   1.373   2.227   0.734  0.2740 -0.5356 -0.1186
  917WAT     H1 3742   1.300   2.284   0.708 -0.5293 -0.2575  2.4425
  917WAT     H2 3743   1.451   2.275   0.706 -0.4496  0.4262 -0.5979
  917WAT    EPW 3744   1.374   2.241   0.727  0.0726 -0.3721  0.1560
  918WAT      O 3745   0.348   3.991   0.942  0.1843 -0.6168 -0.2541
  918WAT     H1 3746   0.386   4.070   0.979  0.3293  0.9449 -3.3651
  918WAT     H2 3747   0.254   4.009   0.938 -0.1543 -1.7885  1.4958
  918WAT    EPW 3748   0.341   4.004   0.946  0.1587 -0.5654 -0.4336
  919WAT      O 3749   1.951   1.043   3.209  0.0033  0.0435  0.3357
  919WAT     H1 3750   1.994   1.037   3.295 -1.2102 -0.4760  0.9224
  919WAT     H2 3751   1.902   1.125   3.212 -1.2317 -0.6898  0.7164
  919WAT    EPW 3752   1.950   1.053   3.221 -0.3196 -0.1217  0.4633
  920WAT      O 3753   3.281   3.235   0.633 -0.0120 -0.4189  0.2591
  920WAT     H1 3754   3.200   3.215   0.586  0.6161 -1.7869 -0.2813
  920WAT     H2 3755   3.262   3.212   0.724  0.0408 -1.6094 -0.0173
  920WAT    EPW 3756   3.268   3.230   0.639  0.0778 -0.7564  0.1513
  921WAT      O 3757   3.495   1.644   3.147 -0.1356  0.2794 -0.2439
  921WAT     H1 3758   3.464   1.583   3.081  0.4715  0.5535 -0.8025
  921WAT     H2 3759   3.465   1.730   3.117 -0.3750  0.3371  0.1560
  921WAT    EPW 3760   3.487   1.648   3.135 -0.0871  0.3232 -0.2649
  922WAT      O 3761   2.121   2.174   0.037 -0.1086  0.1592  0.0350
  922WAT     H1 3762   2.103   2.087   0.075 -0.0402 -0.0546 -0.4195
  922WAT     H2 3763   2.035   2.216   0.033 -0.2049 -0.0541 -0.1530
  922WAT    EPW 3764   2.107   2.168   0.042 -0.1122  0.1029 -0.0497
  923WAT      O 3765   2.649   3.483   3.708 -0.1731 -0.1719 -0.1236
  923WAT     H1 3766   2.711   3.555   3.716 -3.5630  3.0920 -0.1392
  923WAT     H2 3767   2.606   3.479   3.794 -1.1815 -1.0286 -0.6412
  923WAT    EPW 3768   2.651   3.492   3.721 -0.7532  0.1456 -0.1939
  924WAT      O 3769   0.977   2.709   1.353 -0.0603 -0.0935 -0.4247
  924WAT     H1 3770   0.928   2.628   1.367  0.3507 -0.1869  0.6321
  924WAT     H2 3771   0.911   2.775   1.335 -0.7236 -0.0038  1.9649
  924WAT    EPW 3772   0.962   2.707   1.353 -0.0936 -0.0940  0.0299
  925WAT      O 3773   0.700   0.395   3.769 -0.5333 -0.4584 -0.4092
  925WAT     H1 3774   0.648   0.396   3.689 -1.3155 -0.3494  0.0904
  925WAT     H2 3775   0.635   0.391   3.840  0.1620 -1.3916  0.1999
  925WAT    EPW 3776   0.684   0.395   3.768 -0.5448 -0.5671 -0.2630
  926WAT      O 3777   3.517   1.511   1.963 -0.0008  0.6392  0.2781
  926WAT     H1 3778   3.495   1.445   2.030 -0.2903 -0.2663 -0.6871
  926WAT     H2 3779   3.439   1.515   1.908  0.0985  1.6547  0.1955
  926WAT    EPW 3780   3.504   1.503   1.965 -0.0259  0.6537  0.1399
  927WAT      O 3781   0.084   1.309   3.749  0.4961  0.0191 -0.0448
  927WAT     H1 3782   0.058   1.320   3.658 -0.0648 -0.9895 -0.0167
  927WAT     H2 3783   0.034   1.375   3.796 -1.0711 -1.0533 -0.1643
  927WAT    EPW 3784   0.074   1.319   3.743  0.2154 -0.2554 -0.0569
  928WAT      O 3785   1.674   0.341   2.780 -0.1106  1.0083  0.7483
  928WAT     H1 3786   1.734   0.362   2.708 -0.3832  1.9320  0.7726
  928WAT     H2 3787   1.603   0.406   2.772 -1.7648 -0.7828 -0.0274
  928WAT    EPW 3788   1.672   0.352   2.769 -0.3647  0.8939  0.6492
  929WAT      O 3789   2.478   2.742   0.893  0.5357  0.5058 -0.5924
  929WAT     H1 3790   2.564   2.784   0.899 -0.3627  2.3469  0.3745
  929WAT     H2 3791   2.478   2.698   0.808  2.2359  0.9162 -0.8341
  929WAT    EPW 3792   2.489   2.742   0.883  0.6414  0.8027 -0.4968
  930WAT      O 3793   1.778   0.617   0.240 -0.1366  0.2264 -0.0287
  930WAT     H1 3794   1.701   0.619   0.296 -1.5556  1.2115 -1.8766
  930WAT     H2 3795   1.766   0.692   0.181  0.8073 -1.2204 -2.1790
  930WAT    EPW 3796   1.767   0.627   0.239 -0.1992  0.1655 -0.5561
  931WAT      O 3797   1.840   1.672   1.442 -0.5512 -0.2757  0.3264
  931WAT     H1 3798   1.885   1.590   1.419 -0.3523 -0.6812  2.0316
  931WAT     H2 3799   1.751   1.645   1.464 -1.4440  0.4078 -2.0919
  931WAT    EPW 3800   1.835   1.657   1.442 -0.6427 -0.2390  0.2324
  932WAT      O 3801   2.085   0.798   1.877  0.0377 -0.3206  0.3192
  932WAT     H1 3802   2.138   0.724   1.907 -0.0899 -0.9676 -0.9768
  932WAT     H2 3803   2.072   0.782   1.784 -0.0784  1.3049  0.0292
  932WAT    EPW 3804   2.090   0.786   1.869  0.0056 -0.1916  0.1100
  933WAT      O 3805   1.120   4.146   0.668 -0.1011 -0.2947  0.2468
  933WAT     H1 3806   1.214   4.139   0.684 -0.0108  0.3344  0.0322
  933WAT     H2 3807   1.095   4.060   0.633  0.3452 -0.5447  0.5272
  933WAT    EPW 3808   1.129   4.134   0.666 -0.0303 -0.2447  0.2555
  934WAT      O 3809   1.842   3.105   0.945 -0.4694  0.3659 -0.0231
  934WAT     H1 3810   1.866   3.197   0.933  0.0615  0.3224  0.6767
  934WAT     H2 3811   1.835   3.094   1.040 -1.8844  0.0182 -0.1388
  934WAT    EPW 3812   1.844   3.116   0.956 -0.5860  0.3143  0.0540
  935WAT      O 3813   1.950   2.908   2.109 -0.2129 -0.0128 -0.0737
  935WAT     H1 3814   1.933   2.824   2.068 -0.2971 -0.5920  1.1027
  935WAT     H2 3815   2.039   2.900   2.144 -0.2920  0.3148  0.2103
  935WAT    EPW 3816   1.960   2.896   2.108 -0.2344 -0.0460  0.1189
  936WAT      O 3817   0.473   2.942   3.739 -0.3220 -0.0842  0.4131
  936WAT     H1 3818   0.464   2.888   3.817 -1.5926  1.4376  1.3673
  936WAT     H2 3819   0.542   2.899   3.688 -1.3627 -2.6451  1.0338
  936WAT    EPW 3820   0.481   2.929   3.743 -0.6268 -0.2213  0.6209
  937WAT      O 3821   1.465   0.354   3.397 -0.0048  0.0504  0.0077
  937WAT     H1 3822   1.513   0.289   3.345 -1.3235 -0.3952 -0.7131
  937WAT     H2 3823   1.377   0.354   3.359 -0.4912  1.0663  1.0764
  937WAT    EPW 3824   1.460   0.345   3.385 -0.2429  0.1256  0.0536
  938WAT      O 3825   3.273   1.522   2.793  0.5400 -0.0279  0.2179
  938WAT     H1 3826   3.239   1.496   2.707  0.5093 -0.8581  0.4724
  938WAT     H2 3827   3.312   1.442   2.828  0.5987  0.3207  0.9561
  938WAT    EPW 3828   3.273   1.508   2.786  0.5437 -0.0915  0.3488
  939WAT      O 3829   1.669   3.370   3.206 -0.1574 -0.0055  0.0841
  939WAT     H1 3830   1.668   3.455   3.162  0.0395  0.4610  0.9557
  939WAT     H2 3831   1.747   3.326   3.170  0.1460  0.4674  0.1472
  939WAT    EPW 3832   1.679   3.376   3.195 -0.0914  0.1184  0.2074
  940WAT      O 3833   0.590   4.302   2.340 -0.5672  0.2223  0.0005
  940WAT     H1 3834   0.624   4.317   2.428 -0.5777  0.3767 -0.0221
  940WAT     H2 3835   0.660   4.332   2.282 -0.0508 -1.0085 -0.0476
  940WAT    EPW 3836   0.604   4.308   2.344 -0.5005  0.0803 -0.0088
  941WAT      O 3837   3.253   0.147   1.573  0.0218  0.2660  0.3146
  941WAT     H1 3838   3.275   0.067   1.620 -0.8008 -0.4801 -0.5263
  941WAT     H2 3839   3.295   0.137   1.487  0.0260  0.7984  0.2452
  941WAT    EPW 3840   3.262   0.135   1.568 -0.0861  0.2378  0.1945
  942WAT      O 3841   3.572   2.567   1.125 -0.0641  0.4357  0.4898
  942WAT     H1 3842   3.641   2.502   1.142 -0.6820 -0.6206 -0.8304
  942WAT     H2 3843   3.497   2.536   1.174 -0.5829 -0.2913 -0.7230
  942WAT    EPW 3844   3.571   2.554   1.133 -0.2140  0.2005  0.1557
  943WAT      O 3845   2.702   2.760   3.143 -0.1272  0.0160 -0.3042
  943WAT     H1 3846   2.654   2.693   3.192 -0.6945  0.8117  0.2327
  943WAT     H2 3847   2.656   2.767   3.059  0.0916 -0.4420 -0.4679
  943WAT    EPW 3848   2.690   2.752   3.138 -0.1732  0.0606 -0.2550
  944WAT      O 3849   1.105   2.794   2.572 -0.1840 -0.3254  0.3184
  944WAT     H1 3850   1.163   2.797   2.647  0.3885 -0.8195 -0.0954
  944WAT     H2 3851   1.030   2.847   2.597 -0.6260 -1.5851  1.7607
  944WAT    EPW 3852   1.103   2.801   2.585 -0.1668 -0.5567  0.4540
  945WAT      O 3853   1.567   3.699   0.998  0.2363 -0.5836  0.0270
  945WAT     H1 3854   1.619   3.714   1.077 -0.8300  0.5891  0.5330
  945WAT     H2 3855   1.628   3.658   0.937  1.7859  0.7858  0.5806
  945WAT    EPW 3856   1.582   3.695   1.001  0.3000 -0.2483  0.1668
  946WAT      O 3857   1.726   2.979   0.362  0.3094  0.1672 -0.0395
  946WAT     H1 3858   1.767   2.989   0.448  1.0040 -1.3822 -0.1498
  946WAT     H2 3859   1.650   3.037   0.365  0.5976  0.5181  1.4350
  946WAT    EPW 3860   1.721   2.988   0.374  0.4390  0.0092  0.1405
  947WAT      O 3861   0.375   0.170   3.661 -0.0483  0.0177 -0.3603
  947WAT     H1 3862   0.323   0.090   3.667 -1.0698  0.4703 -2.3363
  947WAT     H2 3863   0.461   0.140   3.631  0.1273 -0.4827  0.5842
  947WAT    EPW 3864   0.379   0.155   3.658 -0.1598  0.0114 -0.4964
  948WAT      O 3865   2.856   0.001   1.257  0.1729  0.0783 -0.1600
  948WAT     H1 3866   2.800   0.068   1.297 -1.4916 -1.5935  0.3984
  948WAT     H2 3867   2.934  -0.001   1.312 -1.0123 -0.4373  1.5600
  948WAT    EPW 3868   2.859   0.010   1.269 -0.2030 -0.2102  0.1405
  949WAT      O 3869   0.221   1.911   2.885 -0.2584  0.1821  0.4655
  949WAT     H1 3870   0.176   1.985   2.926 -0.1582  0.2533  0.4481
  949WAT     H2 3871   0.290   1.951   2.832 -0.8706  0.1419 -0.3953
  949WAT    EPW 3872   0.224   1.926   2.883 -0.3259  0.1862  0.3497
  950WAT      O 3873   3.394   1.775   1.397  0.1550  0.1651  0.7288
  950WAT     H1 3874   3.423   1.821   1.318  0.9670 -0.0387  0.8921
  950WAT     H2 3875   3.335   1.707   1.365  0.0554  0.4279  0.3511
  950WAT    EPW 3876   3.390   1.772   1.383  0.2490  0.1729  0.7005
  951WAT      O 3877   0.966   2.925   1.110  0.4012  0.1624  0.2222
  951WAT     H1 3878   0.935   3.016   1.107  1.4968  0.5435 -0.2807
  951WAT     H2 3879   0.890   2.872   1.088 -0.4193  0.9116  1.1788
  951WAT    EPW 3880   0.952   2.930   1.107  0.4375  0.3115  0.2820
  952WAT      O 3881   0.078   3.347   2.377  0.4951  0.5875 -0.7063
  952WAT     H1 3882   0.065   3.360   2.283 -1.0101  0.3907 -0.5580
  952WAT     H2 3883   0.170   3.324   2.386  0.4147 -0.4784 -2.2656
  952WAT    EPW 3884   0.088   3.346   2.366  0.2860  0.4209 -0.8924
  953WAT      O 3885   3.604   0.790   2.253  0.0128 -0.7332 -0.2511
  953WAT     H1 3886   3.528   0.735   2.273  0.6196 -2.1603 -1.6350
  953WAT     H2 3887   3.679   0.731   2.261  0.7421  0.0209 -1.2447
  953WAT    EPW 3888   3.604   0.775   2.257  0.1890 -0.8220 -0.5647
  954WAT      O 3889   0.700   1.970   2.435  0.0598 -0.3158 -0.3530
  954WAT     H1 3890   0.762   1.943   2.503 -0.3519 -1.0733 -0.2652
  954WAT     H2 3891   0.617   1.929   2.461 -0.8489  1.7661  0.2825
  954WAT    EPW 3892   0.697   1.961   2.448 -0.1143 -0.1411 -0.2576
  955WAT      O 3893   2.173   2.698   0.766  1.1461 -0.2875  0.2696
  955WAT     H1 3894   2.186   2.769   0.829  0.0768 -1.3847  1.7906
  955WAT     H2 3895   2.142   2.743   0.686 -0.1982  0.9277  1.4068
  955WAT    EPW 3896   2.171   2.714   0.763  0.8278 -0.2720  0.6202
  956WAT      O 3897   3.076   2.636   3.188 -0.0408 -0.5187 -0.1092
  956WAT     H1 3898   3.152   2.685   3.158 -0.3607  0.6600  0.9292
  956WAT     H2 3899   3.111   2.573   3.250  0.0069  0.7612  1.2188
  956WAT    EPW 3900   3.091   2.634   3.192 -0.0767 -0.1944  0.2029
  957WAT      O 3901   0.241   2.515   2.595  0.0503  0.2635 -0.5088
  957WAT     H1 3902   0.327   2.520   2.554 -0.5697  0.9562 -1.7957
  957WAT     H2 3903   0.250   2.449   2.663  2.1709  1.8257  0.8307
  957WAT    EPW 3904   0.253   2.507   2.598  0.2482  0.5609 -0.5018
  958WAT      O 3905   1.325   1.325   2.912  0.3157  0.2807 -0.2428
  958WAT     H1 3906   1.294   1.293   2.827 -0.1190  2.7941 -1.1192
  958WAT     H2 3907   1.248   1.364   2.953  0.4842 -1.0558  1.4494
  958WAT    EPW 3908   1.311   1.326   2.906  0.2806  0.4360 -0.1352
  959WAT      O 3909   1.354   4.318   2.850 -0.0457 -0.8509 -0.4974
  959WAT     H1 3910   1.356   4.337   2.944  1.6481 -0.2953 -0.6044
  959WAT     H2 3911   1.333   4.225   2.845  0.4920 -1.0403  0.4913
  959WAT    EPW 3912   1.352   4.308   2.862  0.2486 -0.8026 -0.3811
  960WAT      O 3913   1.719   2.622   1.443 -0.5632  0.2436  0.5870
  960WAT     H1 3914   1.633   2.630   1.402  0.1243  1.5274 -0.7102
  960WAT     H2 3915   1.778   2.666   1.382  0.7624  0.8884  2.2678
  960WAT    EPW 3916   1.715   2.629   1.429 -0.2977  0.4980  0.6376
  961WAT      O 3917   0.413   0.013   1.306 -0.3396  0.0895 -0.1574
  961WAT     H1 3918   0.481  -0.034   1.257 -0.8098 -0.9310  0.1386
  961WAT     H2 3919   0.453   0.098   1.327  0.6559 -0.2931 -0.4254
  961WAT    EPW 3920   0.428   0.018   1.302 -0.2703 -0.0955 -0.1537
  962WAT      O 3921   1.789   0.951   2.617  0.2120 -0.1792 -0.2545
  962WAT     H1 3922   1.724   0.993   2.673  0.2357 -0.9299  0.3607
  962WAT     H2 3923   1.814   0.872   2.665  0.3679 -0.7505 -1.2454
  962WAT    EPW 3924   1.784   0.946   2.631  0.2357 -0.3536 -0.3041
  963WAT      O 3925   1.933   4.196   1.213 -0.0705  0.0736  0.2705
  963WAT     H1 3926   1.878   4.221   1.287  0.0668 -0.7034  0.6425
  963WAT     H2 3927   1.929   4.271   1.154 -1.0471  0.2728  0.5652
  963WAT    EPW 3928   1.925   4.209   1.215 -0.1812 -0.0026  0.3585
  964WAT      O 3929   2.545   0.635   2.359  0.5166  0.1130 -1.1962
  964WAT     H1 3930   2.556   0.548   2.321  0.8247 -0.8661  1.0265
  964WAT     H2 3931   2.635   0.669   2.367  0.5056  0.0306 -0.7152
  964WAT    EPW 3932   2.559   0.628   2.355  0.5558 -0.0270 -0.8396
  965WAT      O 3933   1.189   3.438   3.165  0.2916 -0.0415 -0.4013
  965WAT     H1 3934   1.285   3.439   3.175  0.2552 -1.6080  0.4749
  965WAT     H2 3935   1.159   3.515   3.213  1.1025  0.3263 -0.4634
  965WAT    EPW 3936   1.198   3.448   3.173  0.3938 -0.1996 -0.2940
  966WAT      O 3937   1.343   3.149   2.783  0.6815  0.0622 -0.6766
  966WAT     H1 3938   1.430   3.147   2.823  0.4748 -0.3771 -0.2506
  966WAT     H2 3939   1.314   3.239   2.794  0.3242 -0.2130  0.8190
  966WAT    EPW 3940   1.351   3.160   2.790  0.6071 -0.0320 -0.4231
  967WAT      O 3941   3.112   3.633   2.491  0.1905 -0.4643 -0.3532
  967WAT     H1 3942   3.059   3.711   2.474  0.3561 -0.4449 -0.8042
  967WAT     H2 3943   3.128   3.596   2.404  1.0474 -0.3887 -0.2307
  967WAT    EPW 3944   3.107   3.638   2.477  0.3254 -0.4518 -0.3965
  968WAT      O 3945   1.957   0.160   3.010 -0.0978  0.2393 -0.0582
  968WAT     H1 3946   1.987   0.247   2.984 -2.1150  1.0395  0.0959
  968WAT     H2 3947   1.923   0.121   2.929 -0.4767  0.1603  0.1370
  968WAT    EPW 3948   1.956   0.166   2.996 -0.4139  0.3344 -0.0121
  969WAT      O 3949   1.897   1.976   1.107  0.1494  0.1096  0.1121
  969WAT     H1 3950   1.917   1.888   1.075 -0.3269  0.6008 -1.6401
  969WAT     H2 3951   1.881   1.964   1.201  0.5922 -1.5797  0.0101
  969WAT    EPW 3952   1.898   1.963   1.115  0.1450 -0.0485 -0.1325
  970WAT      O 3953   1.366   4.208   1.880 -0.7478  0.3335  0.2455
  970WAT     H1 3954   1.399   4.119   1.888  1.2620  0.9578 -0.5765
  970WAT     H2 3955   1.297   4.215   1.947 -0.4039 -1.5688  0.8282
  970WAT    EPW 3956   1.361   4.198   1.890 -0.4374  0.1649  0.2140
  971WAT      O 3957   3.615   3.917   1.265  0.4842  0.3291 -0.0048
  971WAT     H1 3958   3.584   3.982   1.328  1.8457  0.7754  0.2381
  971WAT     H2 3959   3.646   3.969   1.190  2.3379  0.0525  0.5228
  971WAT    EPW 3960   3.615   3.932   1.263  0.9082  0.3514  0.0969
  972WAT      O 3961   1.346   2.813   1.148 -0.2550 -0.6178 -0.0976
  972WAT     H1 3962   1.391   2.893   1.174 -0.1326 -0.2091 -1.5213
  972WAT     H2 3963   1.264   2.815   1.198  0.8516 -0.9205  1.8178
  972WAT    EPW 3964   1.341   2.824   1.158 -0.0929 -0.6038 -0.0328
  973WAT      O 3965   0.356   3.073   0.415  0.0265 -0.1768 -0.2407
  973WAT     H1 3966   0.298   3.073   0.338  0.4946  0.6720 -0.6084
  973WAT     H2 3967   0.341   3.158   0.456  0.3270 -0.3324  0.1956
  973WAT    EPW 3968   0.346   3.084   0.410  0.1278 -0.0854 -0.2317
  974WAT      O 3969   3.001   2.338   0.485 -0.3934  0.0034 -0.4682
  974WAT     H1 3970   2.927   2.396   0.505  0.0029  0.2122  0.4761
  974WAT     H2 3971   3.060   2.392   0.432  1.0007  1.2859  2.1772
  974WAT    EPW 3972   2.999   2.353   0.481 -0.1573  0.2001  0.0053
  975WAT      O 3973   2.451   2.380   3.032  0.6330 -0.9676  0.2376
  975WAT     H1 3974   2.480   2.423   2.951  0.4553  0.6510  0.9903
  975WAT     H2 3975   2.532   2.351   3.075  0.7439 -1.5642 -0.3579
  975WAT    EPW 3976   2.465   2.382   3.027  0.6242 -0.8328  0.2584
  976WAT      O 3977   2.521   2.579   3.242 -0.5263  0.6220  0.1213
  976WAT     H1 3978   2.566   2.539   3.317 -0.5203  1.3050  0.4913
  976WAT     H2 3979   2.488   2.505   3.192  0.7129  0.1026  0.0213
  976WAT    EPW 3980   2.523   2.564   3.245 -0.3621  0.6436  0.1569
  977WAT      O 3981   2.251   3.558   1.487 -0.2719 -0.2537  0.4957
  977WAT     H1 3982   2.225   3.483   1.434 -1.8415 -0.8303  1.9894
  977WAT     H2 3983   2.247   3.633   1.428 -1.2806 -0.9738 -0.3809
  977WAT    EPW 3984   2.247   3.558   1.473 -0.6119 -0.4247  0.5771
  978WAT      O 3985   0.319   1.656   1.888 -0.1153  0.5049 -0.2065
  978WAT     H1 3986   0.392   1.611   1.846  0.7048  0.5287  1.1383
  978WAT     H2 3987   0.361   1.728   1.936 -0.4702 -1.7121  3.7721
  978WAT    EPW 3988   0.334   1.660   1.889 -0.0539  0.2156  0.4956
  979WAT      O 3989   3.308   2.419   2.010 -0.0939 -0.0282  0.7614
  979WAT     H1 3990   3.336   2.366   2.085  1.1405 -0.4670  0.0157
  979WAT     H2 3991   3.353   2.381   1.935 -1.6327  0.1421 -0.3020
  979WAT    EPW 3992   3.318   2.407   2.010 -0.1340 -0.0636  0.5228
  980WAT      O 3993   2.772   0.773   2.010  0.2571  0.4202  0.2838
  980WAT     H1 3994   2.796   0.858   1.973  0.0504  0.5622  0.4785
  980WAT     H2 3995   2.856   0.733   2.032  0.3977  0.2490 -0.5230
  980WAT    EPW 3996   2.786   0.779   2.008  0.2484  0.4164  0.2031
  981WAT      O 3997   1.569   0.446   2.247 -0.7204  0.7106 -0.2462
  981WAT     H1 3998   1.522   0.503   2.309  0.8640  1.3400  0.4485
  981WAT     H2 3999   1.613   0.382   2.303 -0.3107  0.4871 -0.8204
  981WAT    EPW 4000   1.569   0.445   2.263 -0.4574  0.7642 -0.2303
  982WAT      O 4001   2.662   0.416   2.817 -0.1869 -0.4053  0.2832
  982WAT     H1 4002   2.640   0.332   2.776 -0.6573  0.3564 -1.0802
  982WAT     H2 4003   2.579   0.464   2.818  0.0608  0.0178  1.1391
  982WAT    EPW 4004   2.648   0.411   2.812 -0.2163 -0.2490  0.2163
  983WAT      O 4005   3.215   2.767   1.213 -0.0386  0.0958  0.5798
  983WAT     H1 4006   3.132   2.812   1.230 -0.7649 -0.9620 -0.0255
  983WAT     H2 4007   3.190   2.675   1.200  0.9007  0.1563 -2.2850
  983WAT    EPW 4008   3.201   2.761   1.214 -0.0105 -0.0357  0.1221
  984WAT      O 4009   1.387   1.522   0.255  0.2929  0.1477  0.3613
  984WAT     H1 4010   1.349   1.609   0.263  1.1806  0.5452  0.3056
  984WAT     H2 4011   1.324   1.464   0.299  0.3881  0.9988  1.6612
  984WAT    EPW 4012   1.374   1.526   0.262  0.4225  0.3124  0.5254
  985WAT      O 4013   2.029   1.245   3.663 -0.2890  0.4055  0.2852
  985WAT     H1 4014   2.089   1.290   3.722 -0.2886  0.2576  0.3980
  985WAT     H2 4015   1.990   1.315   3.611 -0.3967  0.5514  0.5576
  985WAT    EPW 4016   2.032   1.260   3.664 -0.3032  0.4052  0.3360
  986WAT      O 4017   1.891   1.939   1.403  0.0301 -0.3114 -0.2865
  986WAT     H1 4018   1.878   1.844   1.401  0.9419 -0.5239  1.7316
  986WAT     H2 4019   1.985   1.951   1.395  0.0103  0.3539  0.3349
  986WAT    EPW 4020   1.901   1.928   1.402  0.1478 -0.2517  0.0617
  987WAT      O 4021   0.877   1.702   0.038  0.1577 -0.1494  0.4247
  987WAT     H1 4022   0.954   1.752   0.064  0.1771 -0.4384  0.9341
  987WAT     H2 4023   0.913   1.620   0.003  0.1039 -0.0363  0.0984
  987WAT    EPW 4024   0.892   1.698   0.037  0.1532 -0.1726  0.4488
  988WAT      O 4025   1.150   0.022   0.527 -0.0305 -0.4322  0.0829
  988WAT     H1 4026   1.097   0.086   0.577 -1.5735 -0.1426 -1.8079
  988WAT     H2 4027   1.126  -0.063   0.565 -0.5788 -0.1648  0.3501
  988WAT    EPW 4028   1.140   0.019   0.539 -0.3063 -0.3587 -0.1313
  989WAT      O 4029   3.440   3.738   1.128  0.7999 -0.7660 -0.5074
  989WAT     H1 4030   3.447   3.643   1.144  1.2024 -0.5450  0.7930
  989WAT     H2 4031   3.521   3.774   1.165  0.4264  0.1402 -0.5604
  989WAT    EPW 4032   3.452   3.730   1.135  0.8037 -0.6173 -0.3429
  990WAT      O 4033   3.625   1.262   3.006 -0.2635  0.4036 -0.5817
  990WAT     H1 4034   3.663   1.319   2.940  1.1905 -0.5086 -0.5720
  990WAT     H2 4035   3.667   1.288   3.088 -1.8788  1.3647 -0.0059
  990WAT    EPW 4036   3.635   1.273   3.008 -0.2848  0.4101 -0.5045
  991WAT      O 4037   1.514   1.189   2.206 -0.0642 -0.0360 -0.6454
  991WAT     H1 4038   1.524   1.108   2.256  0.7225  0.8691  0.7578
  991WAT     H2 4039   1.504   1.257   2.273 -2.4651  0.8479 -1.8124
  991WAT    EPW 4040   1.514   1.188   2.221 -0.2771  0.1999 -0.6143
  992WAT      O 4041   2.099   3.829   1.997 -0.6679 -0.1426 -0.5362
  992WAT     H1 4042   2.167   3.851   2.060  0.0093  0.7255 -1.5315
  992WAT     H2 4043   2.017   3.841   2.045 -0.2024  1.3474 -0.0652
  992WAT    EPW 4044   2.097   3.833   2.012 -0.5172  0.1684 -0.6054
  993WAT      O 4045   0.807   2.466   1.360  0.2399  0.5790  0.1762
  993WAT     H1 4046   0.732   2.521   1.384  0.0481  0.7343 -0.7427
  993WAT     H2 4047   0.773   2.377   1.363  0.5372  0.4897  1.6194
  993WAT    EPW 4048   0.792   2.462   1.363  0.2538  0.5877  0.2454
  994WAT      O 4049   2.778   2.948   1.484  0.3604  0.7112 -0.3092
  994WAT     H1 4050   2.728   2.985   1.411  0.3330  1.4535  0.0878
  994WAT     H2 4051   2.753   3.000   1.560 -0.2668 -0.6002  0.4217
  994WAT    EPW 4052   2.768   2.959   1.484  0.2741  0.6361 -0.1605
  995WAT      O 4053   2.167   3.211   1.817 -0.1768 -0.0275 -0.5652
  995WAT     H1 4054   2.253   3.177   1.843 -0.9056 -0.0198  2.1324
  995WAT     H2 4055   2.176   3.306   1.825  0.5176  0.3045 -3.7595
  995WAT    EPW 4056   2.180   3.219   1.822 -0.1813  0.0173 -0.6307
  996WAT      O 4057   1.291   1.132   3.612 -0.3902 -0.6198  0.1800
  996WAT     H1 4058   1.266   1.079   3.536 -0.5802 -0.4796  0.1440
  996WAT     H2 4059   1.310   1.218   3.574  2.2333 -1.2397 -0.1255
  996WAT    EPW 4060   1.291   1.136   3.597 -0.0692 -0.6830  0.1349
  997WAT      O 4061   0.313   4.033   0.080  0.1063  0.4999  0.0501
  997WAT     H1 4062   0.369   4.033   0.002  0.3261 -0.9898  0.1838
  997WAT     H2 4063   0.257   4.110   0.068  0.7772  0.8436 -1.1080
  997WAT    EPW 4064   0.313   4.044   0.068  0.2238  0.3487 -0.0850
  998WAT      O 4065   2.469   0.308   3.152  0.5249  0.6079  0.1932
  998WAT     H1 4066   2.421   0.264   3.222 -1.3704 -0.1792 -1.5094
  998WAT     H2 4067   2.513   0.381   3.196 -2.4758  1.5941  1.8681
  998WAT    EPW 4068   2.469   0.312   3.167 -0.1208  0.6342  0.1896
  999WAT      O 4069   0.885   3.118   0.857  0.3367  0.0112  0.1704
  999WAT     H1 4070   0.892   3.066   0.777 -1.3175  0.6296 -0.4275
  999WAT     H2 4071   0.975   3.138   0.881  0.8749 -0.0660 -1.6282
  999WAT    EPW 4072   0.898   3.114   0.849  0.1895  0.0826 -0.1457
 1000WAT      O 4073   1.031   3.886   0.594 -0.7330  0.5195 -0.3088
 1000WAT     H1 4074   0.985   3.906   0.512  0.1869  2.4113 -0.4190
 1000WAT     H2 4075   1.116   3.853   0.566 -1.5354 -1.9452 -0.0907
 1000WAT    EPW 4076   1.036   3.884   0.580 -0.7175  0.4440 -0.2946
 1001WAT      O 4077   0.945   3.377   2.265  0.2795  0.2371 -0.0658
 1001WAT     H1 4078   0.885   3.382   2.191  0.1943  1.7201  0.0709
 1001WAT     H2 4079   1.003   3.303   2.244 -0.4807 -0.1090 -1.0284
 1001WAT    EPW 4080   0.945   3.368   2.253  0.1680  0.3871 -0.1747
 1002WAT      O 4081   3.232   2.764   0.476 -0.1133  0.5613 -0.3377
 1002WAT     H1 4082   3.300   2.831   0.478 -1.8077  2.3227  1.2343
 1002WAT     H2 4083   3.205   2.754   0.567 -0.0752 -2.1773 -0.5406
 1002WAT    EPW 4084   3.238   2.771   0.488 -0.3318  0.4324 -0.1572
 1003WAT      O 4085   3.341   0.128   0.023  0.0714 -0.3781 -0.8709
 1003WAT     H1 4086   3.327   0.182  -0.054 -0.0766 -0.2595 -0.7622
 1003WAT     H2 4087   3.339   0.190   0.096  1.1606 -0.3534 -0.8434
 1003WAT    EPW 4088   3.339   0.143   0.023  0.1955 -0.3592 -0.8530
 1004WAT      O 4089   3.519   2.728   3.534 -0.0477  0.1964  0.0053
 1004WAT     H1 4090   3.542   2.821   3.532 -0.0480  0.1870 -1.5829
 1004WAT     H2 4091   3.599   2.683   3.506 -0.3368 -0.2216 -0.1491
 1004WAT    EPW 4092   3.533   2.734   3.530 -0.0859  0.1400 -0.2245
 1005WAT      O 4093   0.764   2.957   3.377 -0.5382  0.1799  0.1395
 1005WAT     H1 4094   0.694   2.949   3.313 -0.4310 -0.5202  0.1078
 1005WAT     H2 4095   0.820   2.881   3.361  0.6327  1.1114 -0.3273
 1005WAT    EPW 4096   0.762   2.946   3.366 -0.3696  0.2104  0.0737
 1006WAT      O 4097   0.051   3.679   2.387 -0.1696 -0.5790 -0.1365
 1006WAT     H1 4098  -0.032   3.708   2.424 -0.9003 -1.7148 -0.8419
 1006WAT     H2 4099   0.047   3.583   2.390  2.0006 -0.7058  1.7408
 1006WAT    EPW 4100   0.040   3.670   2.392  0.0203 -0.7456  0.0181
 1007WAT      O 4101   2.885   1.760   1.281 -0.3119  0.4069 -0.0732
 1007WAT     H1 4102   2.888   1.683   1.338 -0.1719  1.9198  2.1122
 1007WAT     H2 4103   2.842   1.827   1.334  0.3815  2.0987 -1.5404
 1007WAT    EPW 4104   2.880   1.758   1.296 -0.2020  0.8296  0.0215
 1008WAT      O 4105   0.159   0.110   0.131  0.4285  1.2453 -0.1843
 1008WAT     H1 4106   0.151   0.077   0.220  1.0683 -0.0899 -0.5940
 1008WAT     H2 4107   0.069   0.112   0.098  0.3983 -0.8248 -0.3666
 1008WAT    EPW 4108   0.146   0.106   0.138  0.5089  0.7961 -0.2624
 1009WAT      O 4109   0.220   1.974   0.426  0.2672  0.1020  0.4532
 1009WAT     H1 4110   0.132   1.974   0.464  0.8224  0.8190  1.8030
 1009WAT     H2 4111   0.256   2.059   0.449  0.5581  0.7156 -1.9792
 1009WAT    EPW 4112   0.213   1.985   0.434  0.3788  0.2775  0.3104
 1010WAT      O 4113   2.019   1.065   0.445 -0.2013  0.2425 -0.2168
 1010WAT     H1 4114   2.064   1.148   0.457 -1.0608  0.5577  1.0761
 1010WAT     H2 4115   1.928   1.082   0.472 -0.4012 -1.0884  0.0669
 1010WAT    EPW 4116   2.013   1.078   0.450 -0.3410  0.1086 -0.0088
 1011WAT      O 4117   2.511   4.081   3.740 -0.2648 -0.6027  0.0502
 1011WAT     H1 4118   2.463   4.005   3.774 -0.8353 -0.1988  0.1473
 1011WAT     H2 4119   2.586   4.089   3.799 -1.0733 -0.1011  1.0411
 1011WAT    EPW 4120   2.515   4.072   3.752 -0.4467 -0.4833  0.1937
 1012WAT      O 4121   3.143   4.260   0.305 -0.0790  0.1362  0.3969
 1012WAT     H1 4122   3.237   4.248   0.318  0.3166  1.8723 -0.6083
 1012WAT     H2 4123   3.123   4.341   0.351 -0.7815  0.5557 -0.6206
 1012WAT    EPW 4124   3.153   4.269   0.313 -0.1195  0.4205  0.1301
 1013WAT      O 4125   1.806   2.234   3.137 -0.4239  0.2785  0.0213
 1013WAT     H1 4126   1.821   2.149   3.096 -0.1406  0.4013 -0.1318
 1013WAT     H2 4127   1.881   2.246   3.196 -0.7452  0.1732  0.4643
 1013WAT    EPW 4128   1.818   2.224   3.140 -0.4289  0.2808  0.0595
 1014WAT      O 4129   0.435   3.661   1.392 -0.0847 -0.1971 -0.1156
 1014WAT     H1 4130   0.435   3.605   1.315 -0.3844 -0.3293 -0.0208
 1014WAT     H2 4131   0.380   3.736   1.368 -0.6638 -0.5245  0.1732
 1014WAT    EPW 4132   0.428   3.664   1.379 -0.2006 -0.2577 -0.0650
 1015WAT      O 4133   0.208   2.689   3.770 -0.3089 -0.0757  0.5065
 1015WAT     H1 4134   0.197   2.672   3.864  1.0987  1.8790  1.0695
 1015WAT     H2 4135   0.192   2.783   3.761  0.1043 -0.1480 -1.1424
 1015WAT    EPW 4136   0.204   2.699   3.781 -0.0688  0.1725  0.3633
 1016WAT      O 4137   1.235   4.061   2.326  0.1327 -0.3191 -0.4398
 1016WAT     H1 4138   1.156   4.065   2.273  1.2412  1.1277 -2.0796
 1016WAT     H2 4139   1.211   4.104   2.408 -0.0033  3.0794 -2.0976
 1016WAT    EPW 4140   1.222   4.067   2.330  0.2610  0.3199 -0.8748
 1017WAT      O 4141   1.162   0.220   0.228 -0.0121 -0.3600  0.5869
 1017WAT     H1 4142   1.105   0.289   0.262 -0.3325  0.2527 -1.1082
 1017WAT     H2 4143   1.103   0.149   0.206  0.2379 -0.9110  1.6517
 1017WAT    EPW 4144   1.147   0.220   0.230 -0.0214 -0.3519  0.5037
 1018WAT      O 4145   1.521   2.681   2.555 -0.5505 -0.1214 -0.4746
 1018WAT     H1 4146   1.525   2.661   2.461 -2.0026 -0.4967 -0.4722
 1018WAT     H2 4147   1.436   2.722   2.568 -0.4118 -0.1652  0.7057
 1018WAT    EPW 4148   1.510   2.684   2.544 -0.7237 -0.1767 -0.3186
 1019WAT      O 4149   1.958   3.411   3.364  0.0509  0.3172 -0.7012
 1019WAT     H1 4150   1.904   3.487   3.382 -0.7193 -0.6350  1.3683
 1019WAT     H2 4151   2.035   3.446   3.319 -0.5738  2.2119 -0.3680
 1019WAT    EPW 4152   1.961   3.425   3.361 -0.1331  0.4415 -0.3843
 1020WAT      O 4153   1.814   0.850   2.278  0.1652 -0.3576  0.2401
 1020WAT     H1 4154   1.884   0.895   2.325 -0.4546 -0.4358  1.2558
 1020WAT     H2 4155   1.837   0.860   2.185  1.2397  0.0581  0.5439
 1020WAT    EPW 4156   1.826   0.858   2.272  0.2252 -0.3131  0.4141
 1021WAT      O 4157   1.961   3.431   2.076  0.1801  0.1598 -0.2896
 1021WAT     H1 4158   2.056   3.441   2.089  0.2476 -0.9826  0.1641
 1021WAT     H2 4159   1.948   3.338   2.059 -0.9738  0.1428  0.5732
 1021WAT    EPW 4160   1.972   3.420   2.075  0.0368  0.0069 -0.1160
 1022WAT      O 4161   1.070   0.021   1.503 -0.1122  0.5449  0.1906
 1022WAT     H1 4162   0.996  -0.037   1.484  1.7527 -1.4410 -1.6138
 1022WAT     H2 4163   1.075   0.080   1.429  1.0288 -0.4357 -0.5634
 1022WAT    EPW 4164   1.061   0.021   1.491  0.2842  0.1536 -0.1468
 1023WAT      O 4165   1.230   1.951   0.812  0.1520 -0.0883 -0.5851
 1023WAT     H1 4166   1.275   1.971   0.894 -1.0574 -0.5076  0.1971
 1023WAT     H2 4167   1.222   1.855   0.812 -1.5427  0.0345 -0.2583
 1023WAT    EPW 4168   1.235   1.941   0.823 -0.2310 -0.1274 -0.4389
 1024WAT      O 4169   2.855   1.707   0.094  0.2968  0.2299  0.2532
 1024WAT     H1 4170   2.932   1.660   0.061 -0.1976 -1.2009  1.0446
 1024WAT     H2 4171   2.882   1.739   0.180 -0.2086 -0.9685  0.8858
 1024WAT    EPW 4172   2.869   1.705   0.101  0.1649 -0.1169  0.4410
 1025WAT      O 4173   1.527   0.310   0.936 -0.1582 -0.4108 -0.0269
 1025WAT     H1 4174   1.454   0.267   0.892 -0.7016  0.8538 -0.4163
 1025WAT     H2 4175   1.592   0.322   0.867 -0.7130  0.9105 -0.3567
 1025WAT    EPW 4176   1.526   0.306   0.921 -0.3031 -0.0697 -0.1218
 1026WAT      O 4177   1.183   3.529   0.934 -0.9796  0.3386 -0.1735
 1026WAT     H1 4178   1.110   3.544   0.874 -0.7688  1.0754 -0.2528
 1026WAT     H2 4179   1.160   3.578   1.013 -0.8670  0.0565  0.0345
 1026WAT    EPW 4180   1.171   3.538   0.936 -0.9370  0.3986 -0.1565
 1027WAT      O 4181   1.580   1.050   1.653 -0.0229  0.3763  0.6932
 1027WAT     H1 4182   1.518   0.981   1.627  0.1541  0.3955  0.2211
 1027WAT     H2 4183   1.578   1.113   1.581  0.3377  0.5164  0.8028
 1027WAT    EPW 4184   1.572   1.049   1.640  0.0480  0.3973  0.6454
 1028WAT      O 4185   2.982   2.675   1.470 -0.6647  0.3906  0.6276
 1028WAT     H1 4186   3.034   2.743   1.512 -0.0580 -0.8592  1.9466
 1028WAT     H2 4187   2.903   2.668   1.524 -0.4276 -0.3870  0.8902
 1028WAT    EPW 4188   2.978   2.683   1.482 -0.5534  0.1232  0.8362
 1029WAT      O 4189   0.231   1.277   0.377  0.0149  0.1339  0.0245
 1029WAT     H1 4190   0.290   1.336   0.424 -0.7666  0.1979  0.9651
 1029WAT     H2 4191   0.148   1.286   0.422 -0.3748 -0.9645 -0.4400
 1029WAT    EPW 4192   0.228   1.286   0.389 -0.1395 -0.0026  0.0873
 1030WAT      O 4193   3.234   1.544   3.342 -0.2554 -0.0961 -0.1344
 1030WAT     H1 4194   3.321   1.546   3.382 -0.5031 -0.8338  0.4542
 1030WAT     H2 4195   3.200   1.457   3.361 -1.1054  0.1599 -0.4112
 1030WAT    EPW 4196   3.241   1.533   3.350 -0.4002 -0.1596 -0.0933
 1031WAT      O 4197   2.750   1.224   1.140 -0.2432 -0.1865  0.2076
 1031WAT     H1 4198   2.782   1.135   1.129  1.3971  0.5533 -1.3638
 1031WAT     H2 4199   2.654   1.215   1.139 -0.1140 -1.9532  0.5338
 1031WAT    EPW 4200   2.741   1.211   1.139 -0.0098 -0.3219  0.0434
 1032WAT      O 4201   3.318   3.815   2.828  0.1009 -0.8227 -0.9351
 1032WAT     H1 4202   3.345   3.870   2.901 -0.1572  0.6243 -1.8850
 1032WAT     H2 4203   3.387   3.749   2.819  0.5073 -0.5494  0.1143
 1032WAT    EPW 4204   3.330   3.813   2.836  0.1205 -0.5958 -0.9220
 1033WAT      O 4205   2.972   1.605   2.285 -0.4556  0.2492  0.1128
 1033WAT     H1 4206   3.008   1.578   2.200 -0.2088  1.2973 -0.1322
 1033WAT     H2 4207   3.018   1.687   2.305 -2.6333  1.6105 -0.1745
 1033WAT    EPW 4208   2.983   1.612   2.276 -0.7103  0.5670  0.0426
 1034WAT      O 4209   1.425   4.297   2.461 -0.0916  0.2514  0.1200
 1034WAT     H1 4210   1.348   4.277   2.515 -0.6905 -0.3019 -0.9119
 1034WAT     H2 4211   1.391   4.351   2.389  0.7998  1.4961  0.5928
 1034WAT    EPW 4212   1.410   4.301   2.459 -0.0530  0.3426  0.0463
 1035WAT      O 4213   1.341   2.544   0.517  0.1875 -0.4904  0.1512
 1035WAT     H1 4214   1.406   2.489   0.561 -0.3977 -0.2070  1.4114
 1035WAT     H2 4215   1.327   2.617   0.576  0.5886  0.7933 -1.2911
 1035WAT    EPW 4216   1.348   2.546   0.531  0.1632 -0.2837  0.1272
 1036WAT      O 4217   1.953   1.004   2.049 -0.5214 -0.5988 -0.0102
 1036WAT     H1 4218   1.949   0.951   1.969  1.4370  0.9294 -1.1924
 1036WAT     H2 4219   2.043   0.995   2.079 -0.5381  0.9391  0.5514
 1036WAT    EPW 4220   1.964   0.996   2.042 -0.2653 -0.1944 -0.0921
 1037WAT      O 4221   0.840   3.185   3.176 -0.1012 -0.0827 -0.0511
 1037WAT     H1 4222   0.932   3.165   3.189 -0.1313 -1.9973 -2.1274
 1037WAT     H2 4223   0.793   3.120   3.227 -0.2529 -0.6270 -0.8599
 1037WAT    EPW 4224   0.846   3.174   3.184 -0.1252 -0.4070 -0.4317
 1038WAT      O 4225   2.683   3.803   1.800  0.1226  0.1732 -0.2033
 1038WAT     H1 4226   2.589   3.786   1.807  0.2339  0.3219  3.2000
 1038WAT     H2 4227   2.691   3.898   1.804  0.4170  0.1241  1.0025
 1038WAT    EPW 4228   2.672   3.813   1.802  0.1761  0.1863  0.4046
 1039WAT      O 4229   2.817   3.950   0.673  0.0086 -0.0552 -0.3456
 1039WAT     H1 4230   2.805   3.859   0.700  1.7530  0.5390  2.9665
 1039WAT     H2 4231   2.783   4.001   0.747  2.0607  1.8613 -0.6345
 1039WAT    EPW 4232   2.811   3.944   0.687  0.5093  0.2760  0.0532
 1040WAT      O 4233   3.611   1.774   0.810 -0.1859 -0.1618 -0.7247
 1040WAT     H1 4234   3.582   1.712   0.877 -0.4198 -1.0690 -1.6256
 1040WAT     H2 4235   3.538   1.778   0.748 -0.4702  1.6055 -0.3103
 1040WAT    EPW 4236   3.597   1.766   0.810 -0.2543 -0.0484 -0.7889
 1041WAT      O 4237   1.911   2.901   3.762 -0.1640 -0.2417  0.3520
 1041WAT     H1 4238   1.900   2.937   3.674  0.1463  0.8075  0.7309
 1041WAT     H2 4239   2.006   2.901   3.776 -0.1238 -1.6040  0.2101
 1041WAT    EPW 4240   1.922   2.905   3.752 -0.1178 -0.2830  0.3832
 1042WAT      O 4241   2.631   0.757   3.313 -0.5960 -0.1979  0.0928
 1042WAT     H1 4242   2.634   0.793   3.224  0.3813  0.4163  0.3661
 1042WAT     H2 4243   2.621   0.663   3.300 -0.7538 -0.0865 -0.6621
 1042WAT    EPW 4244   2.630   0.749   3.300 -0.4879 -0.1022  0.0293
 1043WAT      O 4245   1.235   1.269   0.334 -0.0803  0.0354 -0.0527
 1043WAT     H1 4246   1.292   1.201   0.373  0.6793  0.1051 -0.9951
 1043WAT     H2 4247   1.208   1.323   0.409 -0.6758 -1.2712  0.7199
 1043WAT    EPW 4248   1.239   1.267   0.349 -0.0587 -0.1277 -0.0751
 1044WAT      O 4249   3.293   2.361   2.514  0.2635 -0.4420 -0.0093
 1044WAT     H1 4250   3.385   2.378   2.495  0.3359 -1.8653 -1.1354
 1044WAT     H2 4251   3.268   2.430   2.576  1.8083  0.5406 -0.4175
 1044WAT    EPW 4252   3.302   2.372   2.520  0.4768 -0.5001 -0.2117
 1045WAT      O 4253   2.048   0.148   1.304 -0.5884  0.1327  0.2366
 1045WAT     H1 4254   1.971   0.101   1.272  0.2720 -1.1899  0.0544
 1045WAT     H2 4255   2.113   0.138   1.235  0.0574  0.4415  0.7915
 1045WAT    EPW 4256   2.046   0.140   1.291 -0.3898 -0.0010  0.2858
 1046WAT      O 4257   2.618   4.323   2.433  0.4596  0.2216 -0.3114
 1046WAT     H1 4258   2.653   4.279   2.356  1.3772  0.9968 -0.3533
 1046WAT     H2 4259   2.524   4.328   2.417  0.6647  0.5942 -1.5067
 1046WAT    EPW 4260   2.610   4.318   2.421  0.6077  0.3730 -0.4746
 1047WAT      O 4261   0.798   2.631   2.625  0.2189  0.2977  0.0269
 1047WAT     H1 4262   0.809   2.726   2.623 -1.7785  0.5734  0.0993
 1047WAT     H2 4263   0.840   2.603   2.707  0.8461  1.0941 -0.0151
 1047WAT    EPW 4264   0.805   2.640   2.636  0.0382  0.4391  0.0309
 1048WAT      O 4265   3.301   1.941   3.124  0.2736 -0.2877  0.0435
 1048WAT     H1 4266   3.231   2.006   3.115  0.9184  0.8669  2.4850
 1048WAT     H2 4267   3.255   1.858   3.133 -0.7200  0.2462  0.0461
 1048WAT    EPW 4268   3.286   1.939   3.124  0.2276 -0.0650  0.3658
 1049WAT      O 4269   3.425   0.876   0.576  0.3009  0.2568  0.3404
 1049WAT     H1 4270   3.460   0.854   0.662  0.6214  1.2726  0.4891
 1049WAT     H2 4271   3.353   0.814   0.562  1.5185 -1.2415  0.4550
 1049WAT    EPW 4272   3.420   0.865   0.586  0.5038  0.1932  0.3751
 1050WAT      O 4273   0.435   3.296   0.936 -0.3137  0.5347  0.0552
 1050WAT     H1 4274   0.392   3.267   0.855  0.9276  0.9065 -0.7565
 1050WAT     H2 4275   0.483   3.219   0.966  0.1990  0.7427 -0.2243
 1050WAT    EPW 4276   0.435   3.282   0.929 -0.0824  0.6112 -0.0887
 1051WAT      O 4277   0.840   1.562   0.422 -0.0718 -0.4421 -0.6191
 1051WAT     H1 4278   0.811   1.517   0.501 -1.0434 -0.7496 -1.1324
 1051WAT     H2 4279   0.903   1.502   0.382 -0.3083 -0.7215 -0.5768
 1051WAT    EPW 4280   0.844   1.548   0.427 -0.2311 -0.5195 -0.6812
 1052WAT      O 4281   1.506   3.503   1.618  0.5673  0.0316 -0.7297
 1052WAT     H1 4282   1.601   3.490   1.611  0.3629 -2.9579  0.4149
 1052WAT     H2 4283   1.493   3.529   1.709  0.3377  1.3701 -1.1352
 1052WAT    EPW 4284   1.517   3.504   1.629  0.5100 -0.1862 -0.6322
 1053WAT      O 4285   2.373   2.305   0.701  0.4254  0.1843  0.3702
 1053WAT     H1 4286   2.290   2.288   0.657  1.0011  1.3880 -1.2905
 1053WAT     H2 4287   2.431   2.235   0.670  0.1800 -0.3995  1.1870
 1053WAT    EPW 4288   2.370   2.293   0.691  0.4689  0.2661  0.2589
 1054WAT      O 4289   1.319   0.573   2.104  0.1704 -0.1132 -0.4163
 1054WAT     H1 4290   1.299   0.509   2.037  1.3830 -2.6622  1.4754
 1054WAT     H2 4291   1.234   0.605   2.134 -0.6220 -2.3738 -0.0683
 1054WAT    EPW 4292   1.305   0.569   2.099  0.2258 -0.7476 -0.1209
 1055WAT      O 4293   1.153   3.414   1.221  0.1052 -0.5933 -0.5274
 1055WAT     H1 4294   1.159   3.322   1.246 -0.1056 -0.6746 -0.7740
 1055WAT     H2 4295   1.062   3.425   1.192 -0.0530 -0.1494  0.1315
 1055WAT    EPW 4296   1.142   3.403   1.220  0.0565 -0.5455 -0.4730
 1056WAT      O 4297   1.193   0.864   2.980  0.3676  0.1210 -0.2071
 1056WAT     H1 4298   1.179   0.942   3.033  2.8217  0.3724  0.2077
 1056WAT     H2 4299   1.286   0.843   2.993  0.3249 -1.5308 -2.1130
 1056WAT    EPW 4300   1.204   0.872   2.989  0.6856 -0.0637 -0.4037
 1057WAT      O 4301   1.467   1.205   3.138  0.1374  0.0267  0.0738
 1057WAT     H1 4302   1.434   1.246   3.058  0.0312  0.1667  0.1902
 1057WAT     H2 4303   1.490   1.116   3.111  1.1552  0.4158 -0.3780
 1057WAT    EPW 4304   1.466   1.199   3.124  0.2576  0.0965  0.0296
 1058WAT      O 4305   0.756   2.505   2.358 -0.3400 -0.4254 -0.0495
 1058WAT     H1 4306   0.745   2.513   2.453 -0.4556 -1.8522  0.0784
 1058WAT     H2 4307   0.849   2.525   2.344 -0.7183  1.6847  0.0968
 1058WAT    EPW 4308   0.767   2.509   2.369 -0.4051 -0.3353 -0.0133
 1059WAT      O 4309   2.653   3.055   2.517 -0.2481 -0.2814 -0.0648
 1059WAT     H1 4310   2.631   3.022   2.604 -0.4889  0.6636  0.2399
 1059WAT     H2 4311   2.667   2.976   2.464  0.3780 -0.8650  0.9474
 1059WAT    EPW 4312   2.652   3.040   2.521 -0.1973 -0.2337  0.1089
 1060WAT      O 4313   0.351   3.167   3.581 -0.1307  0.0669 -0.4140
 1060WAT     H1 4314   0.376   3.102   3.646 -1.7118  0.6069  0.7618
 1060WAT     H2 4315   0.417   3.236   3.590 -0.9653  0.6728  1.4465
 1060WAT    EPW 4316   0.363   3.167   3.590 -0.4493  0.2180 -0.0135
 1061WAT      O 4317   2.863   4.032   0.220 -0.0054 -0.4601 -0.0464
 1061WAT     H1 4318   2.849   4.100   0.286 -0.8405 -0.4412 -0.2357
 1061WAT     H2 4319   2.851   4.077   0.137  2.5643 -0.1196 -0.3087
 1061WAT    EPW 4320   2.859   4.047   0.218  0.2234 -0.4127 -0.1060
 1062WAT      O 4321   2.364   2.627   1.741  0.0883 -0.2988  0.5917
 1062WAT     H1 4322   2.325   2.633   1.829 -2.1951 -0.0609 -0.3629
 1062WAT     H2 4323   2.385   2.717   1.719 -1.2234 -0.0807  0.1399
 1062WAT    EPW 4324   2.362   2.639   1.750 -0.3859 -0.2386  0.4062
 1063WAT      O 4325   1.197   1.124   3.107 -0.1996 -0.2202  0.3451
 1063WAT     H1 4326   1.278   1.152   3.150 -0.3882 -0.3210  0.7755
 1063WAT     H2 4327   1.153   1.205   3.084 -0.1020 -0.1626  0.3579
 1063WAT    EPW 4328   1.202   1.138   3.110 -0.2116 -0.2259  0.4035
 1064WAT      O 4329   0.547   3.384   3.619 -0.3434  0.0652  0.2256
 1064WAT     H1 4330   0.581   3.470   3.594 -0.1706  0.0624  0.4428
 1064WAT     H2 4331   0.507   3.398   3.704 -0.7072  0.0224  0.0630
 1064WAT    EPW 4332   0.546   3.397   3.627 -0.3686  0.0592  0.2328
 1065WAT      O 4333   3.249   0.314   0.973 -0.1991  0.0649 -0.1396
 1065WAT     H1 4334   3.294   0.393   0.944 -0.5398 -0.1878 -1.3859
 1065WAT     H2 4335   3.206   0.341   1.055  0.5844  0.8514  0.0253
 1065WAT    EPW 4336   3.249   0.328   0.980 -0.1407  0.1353 -0.2822
 1066WAT      O 4337   2.105   0.589   3.034  0.6513  0.4288 -0.3869
 1066WAT     H1 4338   2.146   0.673   3.055 -0.9669  0.8776  1.1635
 1066WAT     H2 4339   2.022   0.612   2.994  0.3487 -0.4451 -0.2824
 1066WAT    EPW 4340   2.100   0.603   3.031  0.3979  0.3727 -0.1686
 1067WAT      O 4341   0.212   3.884   3.085  0.0567 -0.0614  0.0663
 1067WAT     H1 4342   0.248   3.957   3.136  1.6793  0.6318 -1.9104
 1067WAT     H2 4343   0.127   3.916   3.054  0.5075  0.7970 -0.3169
 1067WAT    EPW 4344   0.205   3.898   3.088  0.3302  0.1432 -0.2449
 1068WAT      O 4345   3.193   2.720   2.927  0.2685 -0.0906 -0.0168
 1068WAT     H1 4346   3.109   2.760   2.948  0.2753  0.2136 -0.5558
 1068WAT     H2 4347   3.253   2.793   2.918  0.3233 -0.2256 -0.8181
 1068WAT    EPW 4348   3.190   2.735   2.928  0.2766 -0.0682 -0.1936
 1069WAT      O 4349   2.686   1.597   2.237  0.2191 -0.2037  0.1258
 1069WAT     H1 4350   2.781   1.587   2.225  0.1557  0.9618 -1.7449
 1069WAT     H2 4351   2.648   1.544   2.168 -0.5684 -1.5198  1.5213
 1069WAT    EPW 4352   2.694   1.589   2.227  0.1069 -0.2235  0.0631
 1070WAT      O 4353   2.267   1.387   3.786 -0.2893  0.3761 -0.0662
 1070WAT     H1 4354   2.350   1.404   3.830  0.7775  2.0683 -2.5532
 1070WAT     H2 4355   2.270   1.295   3.763  1.0164  0.4674 -0.3213
 1070WAT    EPW 4356   2.278   1.377   3.789  0.0236  0.6114 -0.4279
 1071WAT      O 4357   2.380   3.320   0.931 -0.5294 -0.1734 -0.8534
 1071WAT     H1 4358   2.449   3.261   0.961 -0.5562  0.3096  0.1842
 1071WAT     H2 4359   2.406   3.344   0.842  1.1677  0.7943 -0.1214
 1071WAT    EPW 4360   2.392   3.315   0.923 -0.3091  0.0179 -0.6200
 1072WAT      O 4361   3.549   2.751   0.015  0.0700 -0.2508  0.1965
 1072WAT     H1 4362   3.630   2.721  -0.025  0.7377 -0.0567  1.3573
 1072WAT     H2 4363   3.523   2.827  -0.037 -0.3169 -1.3177 -1.2454
 1072WAT    EPW 4364   3.556   2.757   0.003  0.1070 -0.3659  0.1594
 1073WAT      O 4365   2.287   4.370   0.109  0.5130 -0.1069 -0.0670
 1073WAT     H1 4366   2.328   4.338   0.029  2.6206  0.4350  0.7208
 1073WAT     H2 4367   2.258   4.290   0.154 -0.4029 -0.4298 -1.1843
 1073WAT    EPW 4368   2.288   4.355   0.105  0.6702 -0.0780 -0.1105
 1074WAT      O 4369   0.186   4.340   2.338 -0.4287  0.2535  0.3474
 1074WAT     H1 4370   0.221   4.347   2.427 -0.3552  0.0800  0.3332
 1074WAT     H2 4371   0.252   4.384   2.283 -0.6383  0.6585  0.4162
 1074WAT    EPW 4372   0.200   4.347   2.342 -0.4466  0.2840  0.3546
 1075WAT      O 4373   1.970   1.417   2.559  0.5595  0.4150 -0.5585
 1075WAT     H1 4374   1.904   1.422   2.490  0.5521  0.9330 -0.5148
 1075WAT     H2 4375   1.983   1.323   2.573 -1.0189  0.2866  0.2465
 1075WAT    EPW 4376   1.963   1.405   2.552  0.3503  0.4664 -0.4466
 1076WAT      O 4377   2.594   2.130   0.042  0.3900 -0.5192 -0.6201
 1076WAT     H1 4378   2.657   2.072  -0.001  0.1581 -1.4102  0.2056
 1076WAT     H2 4379   2.526   2.072   0.076 -0.4719  0.3500 -0.7815
 1076WAT    EPW 4380   2.593   2.115   0.041  0.2458 -0.5221 -0.5325
 1077WAT      O 4381   0.958   1.913   2.011  0.1573 -0.0281  0.0393
 1077WAT     H1 4382   1.034   1.872   2.053  0.7413  1.5362  0.5755
 1077WAT     H2 4383   0.904   1.839   1.982  1.8663 -1.1824 -0.3461
 1077WAT    EPW 4384   0.961   1.898   2.013  0.4597  0.0260  0.0592
 1078WAT      O 4385   3.515   2.062   2.581  0.2129  0.0285 -0.5557
 1078WAT     H1 4386   3.463   2.093   2.655  0.9659  1.7808 -0.7111
 1078WAT     H2 4387   3.512   1.967   2.588  0.6638  0.1260  2.0233
 1078WAT    EPW 4388   3.508   2.054   2.592  0.3717  0.2725 -0.2360
 1079WAT      O 4389   1.830   4.275   1.802  0.0114 -0.0645  0.4184
 1079WAT     H1 4390   1.851   4.348   1.860  0.3680  0.1254  0.0588
 1079WAT     H2 4391   1.846   4.197   1.856  1.1737  0.0855  0.3337
 1079WAT    EPW 4392   1.835   4.274   1.817  0.2117 -0.0196  0.3598
 1080WAT      O 4393   2.839   2.816   3.801 -0.2451  0.1152  0.1733
 1080WAT     H1 4394   2.854   2.868   3.722 -1.8956 -0.4466 -0.5618
 1080WAT     H2 4395   2.902   2.745   3.795  1.1747  1.3016  0.5423
 1080WAT    EPW 4396   2.849   2.813   3.790 -0.2755  0.1976  0.1250
 1081WAT      O 4397   1.497   3.045   3.387  0.7104  0.1903  0.0328
 1081WAT     H1 4398   1.468   3.115   3.328 -1.2105  1.7282  2.5858
 1081WAT     H2 4399   1.505   3.088   3.473  5.5917 -1.3931  0.6599
 1081WAT    EPW 4400   1.494   3.060   3.391  1.1009  0.1843  0.4522
 1082WAT      O 4401   3.260   0.718   0.252  0.2387  0.4741  0.1782
 1082WAT     H1 4402   3.346   0.748   0.225  0.6962 -1.8396 -1.2295
 1082WAT     H2 4403   3.256   0.626   0.224 -2.2266  0.1418  1.2786
 1082WAT    EPW 4404   3.271   0.710   0.245 -0.0261  0.1251  0.1376
 1083WAT      O 4405   3.502   3.106   1.993  0.1137 -0.1327 -0.3437
 1083WAT     H1 4406   3.452   3.140   2.067 -0.8513  0.4317 -1.2241
 1083WAT     H2 4407   3.468   3.017   1.980 -1.0400  0.4077 -1.2263
 1083WAT    EPW 4408   3.491   3.099   2.001 -0.1657  0.0130 -0.5762
 1084WAT      O 4409   2.594   1.571   3.297  0.6503 -0.3737  0.4396
 1084WAT     H1 4410   2.570   1.537   3.383 -1.9870  0.0658 -0.0402
 1084WAT     H2 4411   2.590   1.494   3.240  2.2400 -0.6347  0.6475
 1084WAT    EPW 4412   2.590   1.556   3.300  0.5121 -0.3501  0.4038
 1085WAT      O 4413   1.956   1.710   0.986  0.5331  0.9898 -0.1416
 1085WAT     H1 4414   2.033   1.751   0.948  1.3494  0.8325  1.2469
 1085WAT     H2 4415   1.991   1.634   1.034 -0.5771  0.4623 -0.1477
 1085WAT    EPW 4416   1.971   1.706   0.988  0.4944  0.8995  0.0407
 1086WAT      O 4417   2.282   1.816   1.187  0.8088  0.6970 -0.0573
 1086WAT     H1 4418   2.375   1.803   1.200  0.1975 -1.7871  2.9423
 1086WAT     H2 4419   2.258   1.884   1.250  0.3620  0.1618  0.3631
 1086WAT    EPW 4420   2.291   1.824   1.197  0.6692  0.2988  0.3937
 1087WAT      O 4421   2.528   0.055   2.118 -0.0995  0.3650 -0.2654
 1087WAT     H1 4422   2.465  -0.015   2.133  0.2336  0.1362  0.0814
 1087WAT     H2 4423   2.476   0.135   2.127 -0.1159  0.2200  1.2925
 1087WAT    EPW 4424   2.513   0.057   2.121 -0.0577  0.3157 -0.0142
 1088WAT      O 4425   2.657   2.513   3.479  0.2740 -0.0033  0.1040
 1088WAT     H1 4426   2.649   2.542   3.569  0.6523 -0.6905  0.3679
 1088WAT     H2 4427   2.738   2.552   3.448 -0.4093  1.1335 -0.2998
 1088WAT    EPW 4428   2.667   2.522   3.487  0.2338  0.0560  0.0855
 1089WAT      O 4429   1.995   2.718   0.499  0.1397  0.0802  0.1059
 1089WAT     H1 4430   2.036   2.781   0.440 -1.1983 -0.0968 -1.0615
 1089WAT     H2 4431   1.954   2.771   0.567  0.0641  0.4059 -0.1912
 1089WAT    EPW 4432   1.995   2.733   0.500 -0.0468  0.0998 -0.0873
 1090WAT      O 4433   2.255   1.319   2.042  0.1502 -0.3287  0.3154
 1090WAT     H1 4434   2.194   1.270   2.096 -1.0368 -0.1932 -0.8458
 1090WAT     H2 4435   2.221   1.310   1.953  2.0479 -0.5811 -0.4433
 1090WAT    EPW 4436   2.243   1.312   2.037  0.2440 -0.3441  0.0622
 1091WAT      O 4437   3.133   3.298   0.281  0.3513 -0.0575  0.2070
 1091WAT     H1 4438   3.117   3.310   0.188  0.9164 -0.1158  0.1008
 1091WAT     H2 4439   3.047   3.276   0.317 -0.2845  2.0183  0.0568
 1091WAT    EPW 4440   3.119   3.296   0.274  0.3420  0.2086  0.1731
 1092WAT      O 4441   3.159   0.331   1.240 -0.0819 -0.1668  0.3133
 1092WAT     H1 4442   3.235   0.294   1.285  0.9415 -0.9920 -1.9282
 1092WAT     H2 4443   3.161   0.424   1.260  2.4256  0.0899 -0.8067
 1092WAT    EPW 4444   3.169   0.338   1.248  0.3838 -0.2418 -0.1301
 1093WAT      O 4445   1.338   3.624   2.695 -0.1439 -0.1054 -0.0685
 1093WAT     H1 4446   1.320   3.544   2.745  1.1830 -1.5127 -1.7164
 1093WAT     H2 4447   1.264   3.633   2.636 -0.6549  0.3247  0.6261
 1093WAT    EPW 4448   1.326   3.615   2.694 -0.0363 -0.2343 -0.1943
 1094WAT      O 4449   2.603   1.204   3.397 -0.1597 -0.4349 -0.4538
 1094WAT     H1 4450   2.563   1.285   3.430 -0.7427 -0.2392 -1.6083
 1094WAT     H2 4451   2.530   1.154   3.362  0.1492 -1.6244  0.5200
 1094WAT    EPW 4452   2.588   1.208   3.397 -0.1959 -0.5660 -0.4776
 1095WAT      O 4453   2.850   3.046   0.857  0.9809  0.3036  0.0303
 1095WAT     H1 4454   2.940   3.018   0.877  1.6294  0.0393 -2.8562
 1095WAT     H2 4455   2.847   3.138   0.883  2.0593  0.2941  0.2387
 1095WAT    EPW 4456   2.862   3.054   0.863  1.2087  0.2675 -0.3229
 1096WAT      O 4457   1.094   2.681   0.361 -0.4000  0.4685 -0.0463
 1096WAT     H1 4458   1.037   2.608   0.387 -2.4178  2.5569  1.8623
 1096WAT     H2 4459   1.180   2.658   0.396 -1.3203 -0.4199  1.7679
 1096WAT    EPW 4460   1.098   2.668   0.369 -0.7875  0.6268  0.4447
 1097WAT      O 4461   1.203   2.169   1.483  0.0278 -0.2108  0.2330
 1097WAT     H1 4462   1.199   2.249   1.535  1.6079  0.2600 -0.3056
 1097WAT     H2 4463   1.252   2.107   1.538  0.0983 -0.3150  0.0531
 1097WAT    EPW 4464   1.209   2.171   1.497  0.2455 -0.1625  0.1382
 1098WAT      O 4465   3.114   1.572   1.587  0.0023 -0.0608 -0.2130
 1098WAT     H1 4466   3.152   1.559   1.500 -0.0128 -1.3949 -0.0404
 1098WAT     H2 4467   3.073   1.488   1.608  0.4088  0.0845  1.2807
 1098WAT    EPW 4468   3.114   1.560   1.579  0.0539 -0.2176  0.0068
 1099WAT      O 4469   0.759   1.579   0.931  0.2549  0.7881  0.5293
 1099WAT     H1 4470   0.702   1.503   0.931  0.9484  0.2571  0.6275
 1099WAT     H2 4471   0.722   1.637   0.998 -0.0580  0.3751  0.7157
 1099WAT    EPW 4472   0.747   1.577   0.940  0.3051  0.6636  0.5669
 1100WAT      O 4473   3.401   2.358   3.337 -0.3639 -0.0650 -0.0923
 1100WAT     H1 4474   3.446   2.383   3.256  0.0579 -0.9523 -0.1512
 1100WAT     H2 4475   3.373   2.441   3.376  0.8362  0.4764 -0.3438
 1100WAT    EPW 4476   3.403   2.372   3.331 -0.1500 -0.1106 -0.1333
 1101WAT      O 4477   3.599   2.835   1.258  0.6890 -0.0743 -0.7118
 1101WAT     H1 4478   3.624   2.887   1.181  0.2316  0.7438 -0.3205
 1101WAT     H2 4479   3.586   2.747   1.224 -0.0601  0.3947 -1.6906
 1101WAT    EPW 4480   3.600   2.830   1.243  0.5299  0.0954 -0.7893
 1102WAT      O 4481   3.593   3.381   3.077  0.3946  0.2661  0.3256
 1102WAT     H1 4482   3.678   3.400   3.035 -0.0906 -0.5009 -1.0662
 1102WAT     H2 4483   3.540   3.459   3.058  0.6777  0.6194  0.9440
 1102WAT    EPW 4484   3.597   3.394   3.069  0.3679  0.2115  0.2236
 1103WAT      O 4485   1.842   0.120   1.969  0.6523 -0.2976  0.1738
 1103WAT     H1 4486   1.828   0.210   1.942  1.2726 -0.1693  0.2488
 1103WAT     H2 4487   1.755   0.081   1.971  0.4066  0.2300 -0.1011
 1103WAT    EPW 4488   1.829   0.127   1.966  0.7017 -0.2111  0.1474
 1104WAT      O 4489   3.040   2.639   3.738 -0.1243  0.1267 -0.2907
 1104WAT     H1 4490   2.980   2.577   3.697 -0.1666 -0.0355  0.0059
 1104WAT     H2 4491   3.114   2.585   3.765 -0.5248  0.0511  0.7064
 1104WAT    EPW 4492   3.042   2.624   3.736 -0.1827  0.0954 -0.1201
 1105WAT      O 4493   3.097   3.933   0.408  0.2786 -0.3617  0.1360
 1105WAT     H1 4494   3.014   3.980   0.398 -0.0631 -1.1796 -1.1154
 1105WAT     H2 4495   3.076   3.842   0.389  1.5765 -0.4857 -0.8643
 1105WAT    EPW 4496   3.084   3.927   0.404  0.4048 -0.4859 -0.1610
 1106WAT      O 4497   0.208   0.184   3.351  0.5000 -0.6235  0.7244
 1106WAT     H1 4498   0.176   0.096   3.370  0.4000 -0.8288 -0.3548
 1106WAT     H2 4499   0.167   0.208   3.268 -0.1767  0.8043  1.4210
 1106WAT    EPW 4500   0.199   0.176   3.343  0.3976 -0.4623  0.6739
 1107WAT      O 4501   2.227   3.828   1.378 -0.0657 -0.2021 -0.3683
 1107WAT     H1 4502   2.276   3.888   1.435 -0.7767 -0.5697  0.6649
 1107WAT     H2 4503   2.136   3.836   1.407 -0.5124 -0.1504 -1.6939
 1107WAT    EPW 4504   2.221   3.837   1.389 -0.2184 -0.2437 -0.4069
 1108WAT      O 4505   2.851   2.968   2.102  0.1836  0.5334 -0.1165
 1108WAT     H1 4506   2.941   2.964   2.134 -0.2997  0.5178  1.3033
 1108WAT     H2 4507   2.844   2.897   2.038  0.3343 -1.5063  2.0198
 1108WAT    EPW 4508   2.862   2.958   2.098  0.1397  0.2623  0.3525
 1109WAT      O 4509   1.158   0.586   0.727 -0.1432  0.2002 -0.0704
 1109WAT     H1 4510   1.217   0.652   0.691 -1.0729  0.7667 -0.5993
 1109WAT     H2 4511   1.163   0.513   0.665  0.9246 -0.2712  0.5413
 1109WAT    EPW 4512   1.166   0.585   0.714 -0.1250  0.2127 -0.0595
 1110WAT      O 4513   1.615   1.251   3.577  0.0693 -0.0740 -0.3889
 1110WAT     H1 4514   1.538   1.307   3.575  0.0120 -0.1583 -0.5260
 1110WAT     H2 4515   1.583   1.164   3.556  0.1373 -0.1832 -0.0436
 1110WAT    EPW 4516   1.601   1.247   3.574  0.0707 -0.0995 -0.3614
 1111WAT      O 4517   1.991   1.024   2.427 -0.4341  0.0480 -0.0941
 1111WAT     H1 4518   2.078   1.047   2.461 -0.1170 -1.2084  0.0099
 1111WAT     H2 4519   1.938   1.009   2.505  0.2193 -2.5672 -0.0517
 1111WAT    EPW 4520   1.996   1.025   2.442 -0.3061 -0.4627 -0.0748
 1112WAT      O 4521   2.492   1.939   3.546 -0.3945 -0.2172 -0.0176
 1112WAT     H1 4522   2.508   1.909   3.456 -3.0224 -2.3224  0.0699
 1112WAT     H2 4523   2.562   1.900   3.597  0.3216 -0.1976 -0.9615
 1112WAT    EPW 4524   2.503   1.930   3.541 -0.6466 -0.4922 -0.1306
 1113WAT      O 4525   1.206   3.946   3.268  0.1098 -0.2775 -0.1335
 1113WAT     H1 4526   1.226   3.963   3.360  0.6559 -0.4644 -0.2135
 1113WAT     H2 4527   1.155   4.022   3.240  0.3035 -0.0184  0.2087
 1113WAT    EPW 4528   1.202   3.958   3.277  0.2074 -0.2680 -0.0989
 1114WAT      O 4529   1.219   0.326   2.320 -0.1488  0.1358  0.1687
 1114WAT     H1 4530   1.143   0.291   2.365  0.0274  0.0581  0.4121
 1114WAT     H2 4531   1.198   0.419   2.305  0.4504  0.5962  1.9161
 1114WAT    EPW 4532   1.206   0.334   2.324 -0.0466  0.1862  0.4312
 1115WAT      O 4533   1.948   4.341   2.227  0.3471  0.1872 -0.2906
 1115WAT     H1 4534   1.940   4.349   2.322  1.0182 -1.0831 -0.0975
 1115WAT     H2 4535   2.015   4.405   2.203 -1.0085  1.6873 -0.1528
 1115WAT    EPW 4536   1.956   4.350   2.237  0.2568  0.2175 -0.2470
 1116WAT      O 4537   0.967   2.226   2.322 -0.2864 -0.3695 -0.1660
 1116WAT     H1 4538   1.057   2.245   2.294 -0.5956  0.8698 -0.3855
 1116WAT     H2 4539   0.951   2.137   2.292  0.8967 -0.6387 -0.0539
 1116WAT    EPW 4540   0.977   2.217   2.314 -0.1711 -0.2416 -0.1802
 1117WAT      O 4541   3.123   2.323   3.282 -0.1814 -0.2166  0.1642
 1117WAT     H1 4542   3.103   2.236   3.248 -0.6576 -0.1047  0.1459
 1117WAT     H2 4543   3.218   2.326   3.287 -0.1794 -1.0552  0.9760
 1117WAT    EPW 4544   3.133   2.312   3.278 -0.2439 -0.3125  0.2689
 1118WAT      O 4545   1.127   3.570   0.219 -0.0114  0.2928  0.1227
 1118WAT     H1 4546   1.133   3.474   0.216  0.9382  0.3191  0.7234
 1118WAT     H2 4547   1.212   3.600   0.186 -0.6511  0.9546 -0.9768
 1118WAT    EPW 4548   1.139   3.561   0.215  0.0295  0.3835  0.0569
 1119WAT      O 4549   1.670   2.861   1.700  0.2138  0.0110 -0.3253
 1119WAT     H1 4550   1.754   2.821   1.676  0.1452  0.7123 -1.8164
 1119WAT     H2 4551   1.619   2.859   1.620 -2.2448 -2.7988  1.1093
 1119WAT    EPW 4552   1.674   2.855   1.687 -0.1196 -0.2671 -0.3327
 1120WAT      O 4553   0.510   2.999   2.393  0.4005  0.2589 -0.2822
 1120WAT     H1 4554   0.537   3.089   2.410 -0.9922  0.7474 -0.5208
 1120WAT     H2 4555   0.504   2.959   2.480  1.9828  0.0746 -0.2289
 1120WAT    EPW 4556   0.513   3.005   2.407  0.4255  0.2990 -0.3066
 1121WAT      O 4557   1.370   2.283   2.927 -0.1237  0.7619 -0.5576
 1121WAT     H1 4558   1.377   2.370   2.887  0.6579  1.2161  0.5307
 1121WAT     H2 4559   1.452   2.273   2.976 -0.3290 -0.4757 -0.4410
 1121WAT    EPW 4560   1.382   2.293   2.928 -0.0477  0.6586 -0.3987
 1122WAT      O 4561   3.255   3.760   2.151  0.4412 -0.0951  0.1065
 1122WAT     H1 4562   3.314   3.834   2.140 -0.1345  0.6865  1.8825
 1122WAT     H2 4563   3.214   3.749   2.065  2.2595  0.1085 -0.8153
 1122WAT    EPW 4564   3.257   3.769   2.138  0.6051  0.0349  0.2191
 1123WAT      O 4565   0.202   0.253   0.736  0.8447 -0.1187 -0.1567
 1123WAT     H1 4566   0.118   0.220   0.705  0.8132 -0.4278  0.2490
 1123WAT     H2 4567   0.232   0.311   0.666  1.0043 -1.1719 -0.9793
 1123WAT    EPW 4568   0.195   0.256   0.723  0.8616 -0.2983 -0.2117
 1124WAT      O 4569   1.080   3.123   2.211 -0.0844  0.3440  0.4944
 1124WAT     H1 4570   1.128   3.111   2.129 -0.8708  0.9884 -0.0758
 1124WAT     H2 4571   1.145   3.106   2.280  1.0530  1.4669 -0.2480
 1124WAT    EPW 4572   1.095   3.119   2.210 -0.0381  0.5771  0.3213
 1125WAT      O 4573   1.956   2.707   1.283 -0.3160  0.3102 -0.1736
 1125WAT     H1 4574   2.031   2.658   1.315 -1.4988 -0.7074  1.1768
 1125WAT     H2 4575   1.978   2.729   1.193  0.9967 -1.1964 -0.2609
 1125WAT    EPW 4576   1.969   2.704   1.275 -0.2988 -0.0227 -0.0070
 1126WAT      O 4577   3.392   0.541   2.062  0.2057  0.1138 -0.0902
 1126WAT     H1 4578   3.463   0.515   2.003  0.7997  0.6891  0.3610
 1126WAT     H2 4579   3.336   0.463   2.066  0.1475  0.0595 -1.4059
 1126WAT    EPW 4580   3.394   0.527   2.055  0.2764  0.1825 -0.2042
 1127WAT      O 4581   1.000   1.449   0.211 -0.3488 -0.0557  0.2381
 1127WAT     H1 4582   1.022   1.408   0.128 -0.9093  0.1244 -0.0034
 1127WAT     H2 4583   1.002   1.543   0.193 -1.3765 -0.0359  0.1871
 1127WAT    EPW 4584   1.003   1.456   0.198 -0.5582 -0.0293  0.1995
 1128WAT      O 4585   1.369   1.789   3.273 -0.3689 -0.4787 -0.4382
 1128WAT     H1 4586   1.456   1.820   3.250 -0.8674  0.3778 -1.2216
 1128WAT     H2 4587   1.373   1.694   3.260  0.8891 -0.6602  1.0639
 1128WAT    EPW 4588   1.381   1.780   3.268 -0.2687 -0.3897 -0.3434
 1129WAT      O 4589   2.247   0.407   1.262 -0.0481  0.5592 -0.6070
 1129WAT     H1 4590   2.263   0.500   1.246  1.3189  1.0617  2.9007
 1129WAT     H2 4591   2.172   0.406   1.321  1.0034 -0.4140  0.7507
 1129WAT    EPW 4592   2.239   0.419   1.267  0.2709  0.4971  0.0348
 1130WAT      O 4593   1.287   1.678   2.833  0.1528 -0.1102  0.6836
 1130WAT     H1 4594   1.194   1.660   2.845  0.1722  0.0736  1.1310
 1130WAT     H2 4595   1.289   1.764   2.792  0.0999 -0.5378 -0.2363
 1130WAT    EPW 4596   1.275   1.687   2.829  0.1484 -0.1424  0.6213
 1131WAT      O 4597   2.407   1.880   2.510  0.3710 -0.1868  0.0579
 1131WAT     H1 4598   2.330   1.842   2.553  0.0718  1.5286  1.1376
 1131WAT     H2 4599   2.424   1.822   2.436 -1.2031 -1.3116  0.5214
 1131WAT    EPW 4600   2.399   1.868   2.506  0.1239 -0.1089  0.2614
 1132WAT      O 4601   1.348   0.212   0.444 -0.4316 -0.3775  0.3575
 1132WAT     H1 4602   1.306   0.197   0.360  0.1933 -0.5147  0.0666
 1132WAT     H2 4603   1.303   0.152   0.504  0.7094 -2.0448 -0.3747
 1132WAT    EPW 4604   1.336   0.202   0.441 -0.1987 -0.6155  0.2226
 1133WAT      O 4605   3.487   2.577   2.206 -0.2904 -0.4095 -0.1000
 1133WAT     H1 4606   3.448   2.648   2.255 -2.3738 -2.0614  0.7861
 1133WAT     H2 4607   3.453   2.587   2.117 -2.9809 -1.8628  0.6737
 1133WAT    EPW 4608   3.478   2.588   2.200 -0.9200 -0.8190  0.1189
 1134WAT      O 4609   1.129   2.020   3.334  0.3915 -0.0708 -0.2892
 1134WAT     H1 4610   1.223   2.030   3.320  0.5919  0.9151  1.3801
 1134WAT     H2 4611   1.109   1.930   3.308  1.3525  0.3661 -2.7077
 1134WAT    EPW 4612   1.139   2.010   3.329  0.5447  0.1168 -0.3880
 1135WAT      O 4613   2.909   1.429   1.009 -0.3984  0.0492 -0.2630
 1135WAT     H1 4614   2.899   1.344   0.965 -0.3034 -0.0977  0.0008
 1135WAT     H2 4615   2.864   1.418   1.092  0.5317 -0.0908  0.2358
 1135WAT    EPW 4616   2.902   1.416   1.014 -0.2632  0.0114 -0.1624
 1136WAT      O 4617   1.836   2.956   3.475  0.1966  0.2514 -0.3577
 1136WAT     H1 4618   1.782   2.917   3.406  0.3819  0.7587 -0.8043
 1136WAT     H2 4619   1.822   3.051   3.465  0.5842  0.3510  0.0078
 1136WAT    EPW 4620   1.827   2.964   3.464  0.2722  0.3315 -0.3684
 1137WAT      O 4621   2.165   4.036   1.741 -0.2870 -0.6419  0.2240
 1137WAT     H1 4622   2.242   4.093   1.742 -1.5030  1.1387  1.9081
 1137WAT     H2 4623   2.185   3.968   1.806  0.0723 -0.4633  0.3031
 1137WAT    EPW 4624   2.178   4.034   1.750 -0.4000 -0.3835  0.4565
 1138WAT      O 4625   0.629   2.070   3.548  0.1668 -0.2560 -0.1843
 1138WAT     H1 4626   0.709   2.120   3.534  0.4515 -0.8948 -0.9104
 1138WAT     H2 4627   0.623   2.013   3.471 -0.8454 -0.3980 -0.0124
 1138WAT    EPW 4628   0.639   2.069   3.536  0.0709 -0.3590 -0.2574
 1139WAT      O 4629   1.835   3.531   1.243 -0.6129 -0.4962  0.6366
 1139WAT     H1 4630   1.924   3.499   1.228 -1.5573 -2.8035 -0.5895
 1139WAT     H2 4631   1.829   3.540   1.338 -0.1462 -3.9831  1.1373
 1139WAT    EPW 4632   1.846   3.528   1.254 -0.6759 -1.2604  0.5409
 1140WAT      O 4633   1.995   1.788   3.064 -0.3371 -0.2574 -0.5978
 1140WAT     H1 4634   2.077   1.816   3.023  0.3961 -2.2692 -0.6443
 1140WAT     H2 4635   1.957   1.727   3.001 -2.2368  1.1160 -0.8554
 1140WAT    EPW 4636   2.001   1.784   3.050 -0.4909 -0.3416 -0.6379
 1141WAT      O 4637   0.790   0.703   1.243  0.1163  0.1856  0.0902
 1141WAT     H1 4638   0.884   0.714   1.251 -0.0080  1.1777  0.3599
 1141WAT     H2 4639   0.779   0.635   1.176  1.0149  0.5865 -0.4867
 1141WAT    EPW 4640   0.801   0.695   1.235  0.2184  0.3693  0.0497
 1142WAT      O 4641   2.144   1.339   0.221  0.0544 -0.1530 -0.2442
 1142WAT     H1 4642   2.062   1.384   0.244  0.9430  1.6776 -0.4673
 1142WAT     H2 4643   2.162   1.367   0.132 -0.4557 -2.7481 -1.2531
 1142WAT    EPW 4644   2.136   1.349   0.212  0.1043 -0.2539 -0.4067
 1143WAT      O 4645   0.979   3.700   2.733  0.5508 -0.4640 -0.5956
 1143WAT     H1 4646   0.966   3.625   2.791 -1.4454 -1.2427 -1.9796
 1143WAT     H2 4647   0.922   3.768   2.768  2.5578  0.5842  0.8170
 1143WAT    EPW 4648   0.970   3.699   2.745  0.5522 -0.4284 -0.5918
 1144WAT      O 4649   3.430   0.170   2.267  0.1789  0.0425  0.0255
 1144WAT     H1 4650   3.388   0.177   2.181  1.3413  0.4675 -0.5302
 1144WAT     H2 4651   3.419   0.078   2.292  0.2913 -0.2069 -0.8211
 1144WAT    EPW 4652   3.423   0.159   2.259  0.3471  0.0657 -0.1595
 1145WAT      O 4653   3.329   2.782   2.356  0.1561 -0.2494  0.6315
 1145WAT     H1 4654   3.409   2.835   2.356  0.9533 -1.4191  0.9451
 1145WAT     H2 4655   3.296   2.789   2.445 -1.1807  1.7667  0.0473
 1145WAT    EPW 4656   3.335   2.790   2.368  0.0849 -0.1378  0.5958
 1146WAT      O 4657   0.329   2.496   0.537 -0.2187 -0.3105  0.7752
 1146WAT     H1 4658   0.381   2.561   0.489  0.6515 -1.1033  0.6018
 1146WAT     H2 4659   0.300   2.542   0.616  1.8048 -0.1818  1.4998
 1146WAT    EPW 4660   0.332   2.511   0.541  0.1629 -0.3981  0.8479
 1147WAT      O 4661   3.453   3.307   1.075 -0.0603  0.2922  0.2542
 1147WAT     H1 4662   3.411   3.371   1.132 -0.3313  0.7038 -0.4125
 1147WAT     H2 4663   3.538   3.291   1.116 -0.1002  0.8715  0.5638
 1147WAT    EPW 4664   3.459   3.313   1.088 -0.1013  0.4229  0.2071
 1148WAT      O 4665   1.866   1.414   1.848  0.6851 -0.8469  0.3389
 1148WAT     H1 4666   1.891   1.494   1.895 -0.7338 -0.4694  0.4964
 1148WAT     H2 4667   1.842   1.352   1.917 -0.5129 -0.5986  0.1606
 1148WAT    EPW 4668   1.866   1.417   1.863  0.3400 -0.7643  0.3361
 1149WAT      O 4669   1.352   0.134   0.744 -0.4579  0.2912 -0.2124
 1149WAT     H1 4670   1.330   0.046   0.775 -0.6974  0.0298 -1.0694
 1149WAT     H2 4671   1.447   0.134   0.736 -0.4717  0.0261 -0.4152
 1149WAT    EPW 4672   1.362   0.122   0.747 -0.4913  0.2218 -0.3522
 1150WAT      O 4673   2.099   0.544   3.670  0.2543 -0.2614 -0.7352
 1150WAT     H1 4674   2.016   0.538   3.622 -1.7748  0.3869  2.4255
 1150WAT     H2 4675   2.126   0.635   3.660 -1.1714  0.3674  0.7993
 1150WAT    EPW 4676   2.092   0.555   3.662 -0.2013 -0.0929 -0.1159
 1151WAT      O 4677   3.278   2.993   0.202 -0.8339 -0.5240  0.3665
 1151WAT     H1 4678   3.328   3.047   0.141 -1.5585  0.5757  0.7106
 1151WAT     H2 4679   3.256   2.915   0.151 -0.9278  0.1091 -0.6061
 1151WAT    EPW 4680   3.281   2.990   0.187 -0.9418 -0.2955  0.2836
 1152WAT      O 4681   3.447   2.193   2.837 -0.0530 -0.1232 -0.3327
 1152WAT     H1 4682   3.380   2.252   2.873  0.3450 -0.1803  0.5297
 1152WAT     H2 4683   3.501   2.169   2.913 -0.1481 -1.5263 -0.6828
 1152WAT    EPW 4684   3.445   2.198   2.852 -0.0131 -0.3158 -0.2651
 1153WAT      O 4685   0.488   2.935   1.258 -0.1934  0.0544 -0.0690
 1153WAT     H1 4686   0.456   2.985   1.332 -3.2563 -0.0548 -1.1609
 1153WAT     H2 4687   0.459   2.985   1.181 -0.2387 -1.5719 -1.1604
 1153WAT    EPW 4688   0.480   2.948   1.257 -0.6034 -0.1745 -0.3570
 1154WAT      O 4689   2.473   1.219   1.128 -0.4408  0.1991  0.0229
 1154WAT     H1 4690   2.435   1.253   1.209  0.1661 -0.5162  0.6180
 1154WAT     H2 4691   2.408   1.239   1.061 -0.6653  1.3780  0.5687
 1154WAT    EPW 4692   2.460   1.226   1.130 -0.3903  0.2602  0.1733
 1155WAT      O 4693   2.145   0.511   2.231  0.4322 -0.3171  0.3692
 1155WAT     H1 4694   2.135   0.528   2.137 -1.3386  2.0537  0.9069
 1155WAT     H2 4695   2.208   0.577   2.260  0.3519 -0.5134  0.9957
 1155WAT    EPW 4696   2.152   0.522   2.222  0.1880 -0.0303  0.5227
 1156WAT      O 4697   3.489   4.219   3.827 -0.3986  0.0133  0.2956
 1156WAT     H1 4698   3.453   4.259   3.748 -1.3967 -1.2875  0.0498
 1156WAT     H2 4699   3.416   4.219   3.890  0.2406  0.5975  1.0590
 1156WAT    EPW 4700   3.474   4.224   3.825 -0.4460 -0.0812  0.3638
 1157WAT      O 4701   0.949   1.328   3.318 -0.0013 -0.6573  0.3989
 1157WAT     H1 4702   0.915   1.409   3.355 -1.0742 -0.7731 -0.2904
 1157WAT     H2 4703   0.983   1.353   3.232 -3.0193 -1.3762 -1.1282
 1157WAT    EPW 4704   0.949   1.342   3.311 -0.5409 -0.7674  0.1066
 1158WAT      O 4705   1.046   1.752   3.321 -0.1407 -0.2850  0.2857
 1158WAT     H1 4706   1.052   1.722   3.231 -1.3654  1.4490 -0.4354
 1158WAT     H2 4707   0.959   1.722   3.350 -0.3965  0.4819  0.3394
 1158WAT    EPW 4708   1.035   1.744   3.313 -0.3360  0.0449  0.1977
 1159WAT      O 4709   3.043   0.819   1.539  0.7550 -0.4144  0.1967
 1159WAT     H1 4710   3.057   0.827   1.634 -1.0549  0.9615  0.4015
 1159WAT     H2 4711   3.061   0.907   1.505 -2.0657  0.1079 -0.1810
 1159WAT    EPW 4712   3.047   0.832   1.547  0.1442 -0.1640  0.1739
 1160WAT      O 4713   0.813   3.182   1.987 -0.2522 -0.2871 -0.3547
 1160WAT     H1 4714   0.815   3.096   2.030  1.6706  1.1079  2.6588
 1160WAT     H2 4715   0.725   3.215   2.004 -0.6327 -1.1586 -0.5462
 1160WAT    EPW 4716   0.802   3.175   1.995 -0.0488 -0.2180  0.0175
 1161WAT      O 4717   0.047   2.571   3.494 -0.5686 -0.4555  0.6635
 1161WAT     H1 4718   0.135   2.579   3.532  1.2742 -2.3349 -2.7465
 1161WAT     H2 4719   0.008   2.497   3.539  1.1428 -1.9749 -0.2342
 1161WAT    EPW 4720   0.053   2.562   3.505 -0.0998 -0.9038  0.0953
 1162WAT      O 4721   3.033   0.888   3.103 -0.2789  0.0157  0.5112
 1162WAT     H1 4722   2.974   0.963   3.098  0.5714  0.9644  3.1854
 1162WAT     H2 4723   3.000   0.837   3.177  2.1901  0.5903  2.0892
 1162WAT    EPW 4724   3.021   0.891   3.112  0.1589  0.2166  1.0721
 1163WAT      O 4725   2.561   4.295   2.723 -0.3716  0.0300  0.0900
 1163WAT     H1 4726   2.573   4.292   2.628  0.5682 -0.2418  0.2106
 1163WAT     H2 4727   2.649   4.299   2.758 -0.7455  2.0850  0.9123
 1163WAT    EPW 4728   2.574   4.295   2.715 -0.2970  0.2652  0.2144
 1164WAT      O 4729   0.666   1.943   1.328  0.0822 -0.0565  0.0694
 1164WAT     H1 4730   0.640   2.031   1.358  0.4152 -0.2526  0.9751
 1164WAT     H2 4731   0.601   1.885   1.367  0.5771 -0.3258  0.5171
 1164WAT    EPW 4732   0.654   1.947   1.337  0.1914 -0.1179  0.2479
 1165WAT      O 4733   2.026   2.903   1.685  0.1552  0.6658 -0.7406
 1165WAT     H1 4734   2.007   2.997   1.684 -1.3208  0.4012 -0.1929
 1165WAT     H2 4735   2.086   2.892   1.758  0.2474  1.1683 -0.7315
 1165WAT    EPW 4736   2.031   2.914   1.695 -0.0273  0.6972 -0.6671
 1166WAT      O 4737   2.827   3.208   2.673  0.1967 -0.5273  0.2029
 1166WAT     H1 4738   2.780   3.183   2.593  0.8855 -1.0724 -0.0423
 1166WAT     H2 4739   2.776   3.281   2.708  0.1960  0.1145 -1.0448
 1166WAT    EPW 4740   2.814   3.214   2.667  0.2875 -0.5145  0.0060
 1167WAT      O 4741   0.850   0.896   3.533  0.0997 -0.3197 -0.1413
 1167WAT     H1 4742   0.872   0.958   3.603  1.0373 -0.5240 -0.2426
 1167WAT     H2 4743   0.810   0.822   3.578  2.0231 -1.1000  0.3758
 1167WAT    EPW 4744   0.847   0.895   3.548  0.4770 -0.4496 -0.0864
 1168WAT      O 4745   0.718   1.522   1.665 -0.2477 -0.2676 -0.1372
 1168WAT     H1 4746   0.812   1.529   1.679 -0.0328 -0.2928 -1.4267
 1168WAT     H2 4747   0.709   1.451   1.601 -1.2858 -1.5643  1.3579
 1168WAT    EPW 4748   0.729   1.513   1.658 -0.3563 -0.4419 -0.1101
 1169WAT      O 4749   2.676   3.310   0.806 -0.4042  0.2759  0.1592
 1169WAT     H1 4750   2.738   3.335   0.738  0.1089 -0.2135  0.4368
 1169WAT     H2 4751   2.655   3.392   0.851  1.0944  0.2812  0.9274
 1169WAT    EPW 4752   2.682   3.324   0.803 -0.1389  0.2120  0.2971
 1170WAT      O 4753   3.171   1.809   2.373  0.2482  0.4164 -0.0382
 1170WAT     H1 4754   3.117   1.883   2.403 -0.8441 -0.5603  0.4860
 1170WAT     H2 4755   3.229   1.791   2.447  0.6592  0.8618 -0.2438
 1170WAT    EPW 4756   3.171   1.816   2.387  0.1583  0.3463  0.0039
 1171WAT      O 4757   0.741   0.195   2.871 -0.0488 -0.2995 -0.2103
 1171WAT     H1 4758   0.720   0.288   2.877  1.2888 -0.0629  1.3229
 1171WAT     H2 4759   0.821   0.192   2.818  1.3904 -0.2862  1.8542
 1171WAT    EPW 4760   0.748   0.207   2.864  0.3174 -0.2665  0.2643
 1172WAT      O 4761   3.417   0.464   0.687  0.3957  0.1253 -0.2122
 1172WAT     H1 4762   3.484   0.511   0.637  0.7604  0.2034  0.3509
 1172WAT     H2 4763   3.466   0.413   0.751 -0.0374 -0.5348 -0.4019
 1172WAT    EPW 4764   3.432   0.464   0.689  0.3867  0.0486 -0.1629
 1173WAT      O 4765   0.643   3.692   1.587 -0.1626  0.6330  0.1871
 1173WAT     H1 4766   0.715   3.649   1.541  0.9930  2.3549  0.2875
 1173WAT     H2 4767   0.570   3.691   1.525 -0.3774 -1.8507  0.3742
 1173WAT    EPW 4768   0.643   3.686   1.573 -0.0385  0.5325  0.2250
 1174WAT      O 4769   0.559   1.831   0.736 -0.1134 -0.0867  0.8838
 1174WAT     H1 4770   0.477   1.879   0.737 -0.1041 -0.0772  1.7116
 1174WAT     H2 4771   0.543   1.755   0.792 -0.4190 -1.5723 -1.1142
 1174WAT    EPW 4772   0.546   1.827   0.744 -0.1525 -0.2814  0.7295
 1175WAT      O 4773   0.033   0.753   1.917  0.2826  0.4331 -0.0416
 1175WAT     H1 4774  -0.060   0.765   1.895  0.5449  0.2764 -1.3137
 1175WAT     H2 4775   0.055   0.668   1.878  0.8820  0.3181  0.5405
 1175WAT    EPW 4776   0.024   0.743   1.909  0.3962  0.3973 -0.1326
 1176WAT      O 4777   1.950   1.741   0.340  0.2417  0.8376  0.0565
 1176WAT     H1 4778   1.981   1.702   0.422  0.2021 -1.4255 -0.9126
 1176WAT     H2 4779   1.985   1.683   0.272 -0.6171  2.0315 -1.4611
 1176WAT    EPW 4780   1.959   1.728   0.342  0.1232  0.6965 -0.2715
 1177WAT      O 4781   3.311   1.891   2.797  0.1394  0.3145  0.7666
 1177WAT     H1 4782   3.392   1.885   2.848 -0.0863 -2.7599  0.9650
 1177WAT     H2 4783   3.328   1.837   2.719 -1.3314  0.5654  0.2420
 1177WAT    EPW 4784   3.324   1.883   2.793 -0.0844 -0.0579  0.7236
 1178WAT      O 4785   1.602   2.605   2.295  0.0942 -0.3193 -0.4286
 1178WAT     H1 4786   1.641   2.683   2.255 -3.0666  1.3416 -0.6289
 1178WAT     H2 4787   1.550   2.566   2.225 -1.4293 -0.3254  0.6601
 1178WAT    EPW 4788   1.600   2.610   2.281 -0.5236 -0.1011 -0.3115
 1179WAT      O 4789   2.480   0.950   2.777 -0.3892 -0.0599  0.2242
 1179WAT     H1 4790   2.409   1.009   2.799 -0.1771  0.3900 -0.2692
 1179WAT     H2 4791   2.441   0.887   2.716 -0.8643 -1.0416  1.5058
 1179WAT    EPW 4792   2.466   0.949   2.772 -0.4239 -0.1301  0.3282
 1180WAT      O 4793   3.319   0.909   2.895 -0.5089  0.0602 -0.1981
 1180WAT     H1 4794   3.299   0.866   2.811 -0.7680 -0.7230  0.2553
 1180WAT     H2 4795   3.261   0.984   2.898  0.5576  1.0041 -1.4125
 1180WAT    EPW 4796   3.309   0.913   2.884 -0.4024  0.0814 -0.2984
 1181WAT      O 4797   1.291   4.073   3.528  0.1637  0.1663 -0.3209
 1181WAT     H1 4798   1.332   4.026   3.601 -0.8097  1.5263  1.1851
 1181WAT     H2 4799   1.296   4.166   3.554 -0.8993  0.6241 -1.6384
 1181WAT    EPW 4800   1.297   4.079   3.541 -0.1049  0.4061 -0.2961
 1182WAT      O 4801   0.881   0.994   1.418  0.0802  0.1427 -0.1061
 1182WAT     H1 4802   0.823   0.920   1.436  0.1257 -0.2116 -1.2841
 1182WAT     H2 4803   0.835   1.071   1.452 -0.2289 -0.3632  0.6172
 1182WAT    EPW 4804   0.867   0.995   1.425  0.0454  0.0292 -0.1661
 1183WAT      O 4805   3.385   2.844   1.974 -0.1654 -0.3895  0.0958
 1183WAT     H1 4806   3.303   2.800   1.995 -0.3915  0.3182  0.7526
 1183WAT     H2 4807   3.446   2.773   1.952 -0.8155 -0.9473  0.0788
 1183WAT    EPW 4808   3.382   2.829   1.974 -0.2810 -0.3698  0.1802
 1184WAT      O 4809   3.703   4.252   1.627  0.0349  0.1159 -0.3272
 1184WAT     H1 4810   3.772   4.198   1.590 -1.1875 -1.0936 -0.9296
 1184WAT     H2 4811   3.643   4.269   1.554 -0.0667  1.5753  0.0491
 1184WAT    EPW 4812   3.704   4.247   1.613 -0.1398  0.1489 -0.3570
 1185WAT      O 4813   1.444   3.520   1.193 -0.4412  0.5916  0.2888
 1185WAT     H1 4814   1.443   3.596   1.134 -0.3386  0.3103 -0.0795
 1185WAT     H2 4815   1.359   3.478   1.179 -0.7866  1.0302  1.0140
 1185WAT    EPW 4816   1.433   3.524   1.183 -0.4732  0.6123  0.3359
 1186WAT      O 4817   0.499   4.227   1.058 -0.3634 -0.7055  0.1310
 1186WAT     H1 4818   0.595   4.232   1.055 -0.3835 -0.0971  0.3636
 1186WAT     H2 4819   0.469   4.308   1.017 -0.7760 -0.7735  0.2900
 1186WAT    EPW 4820   0.508   4.238   1.052 -0.4205 -0.6343  0.1826
 1187WAT      O 4821   1.244   2.647   1.949  0.1910  0.1151  0.1363
 1187WAT     H1 4822   1.300   2.572   1.929  0.3944  0.0840  0.7847
 1187WAT     H2 4823   1.179   2.612   2.011  0.9172  0.6975  1.2648
 1187WAT    EPW 4824   1.243   2.633   1.954  0.3136  0.1878  0.3706
 1188WAT      O 4825   0.642   1.090   1.241 -0.2665 -0.1222 -0.3727
 1188WAT     H1 4826   0.729   1.068   1.276 -0.0413  0.0873 -0.7999
 1188WAT     H2 4827   0.641   1.186   1.238 -1.0920 -0.0503  1.0869
 1188WAT    EPW 4828   0.653   1.100   1.246 -0.3457 -0.0851 -0.2366
 1189WAT      O 4829   0.523   1.998   0.333 -0.3666 -0.1500 -0.4334
 1189WAT     H1 4830   0.572   1.929   0.287 -0.2570 -1.3020  1.3274
 1189WAT     H2 4831   0.432   1.984   0.306 -0.4472 -1.4539  0.4015
 1189WAT    EPW 4832   0.518   1.987   0.323 -0.3627 -0.4739 -0.0910
 1190WAT      O 4833   0.981   3.107   1.445 -0.5762 -0.1881 -0.0719
 1190WAT     H1 4834   0.915   3.073   1.506 -2.4549 -0.5650 -2.1861
 1190WAT     H2 4835   0.932   3.165   1.387  1.4065  1.1797 -0.4692
 1190WAT    EPW 4836   0.966   3.110   1.446 -0.5625 -0.0574 -0.4031
 1191WAT      O 4837   1.769   0.664   2.728 -0.1415 -0.2543  0.2304
 1191WAT     H1 4838   1.688   0.708   2.752 -0.7593 -0.6811 -0.9973
 1191WAT     H2 4839   1.793   0.613   2.806 -1.6417 -0.9643  0.2591
 1191WAT    EPW 4840   1.761   0.663   2.741 -0.4208 -0.4043  0.0723
 1192WAT      O 4841   0.620   3.070   0.301 -0.2832 -0.4090 -0.4180
 1192WAT     H1 4842   0.527   3.061   0.320  0.4037 -0.3354  3.8022
 1192WAT     H2 4843   0.663   3.007   0.359  2.3872  0.4431 -1.3058
 1192WAT    EPW 4844   0.613   3.060   0.311  0.1596 -0.2869  0.0215
 1193WAT      O 4845   2.751   4.164   2.255 -0.8235 -0.5595  0.2411
 1193WAT     H1 4846   2.816   4.231   2.234 -2.0668  1.0683  1.3161
 1193WAT     H2 4847   2.720   4.133   2.169  0.6556 -0.6757 -0.2711
 1193WAT    EPW 4848   2.755   4.169   2.241 -0.7924 -0.3601  0.3153
 1194WAT      O 4849   2.228   0.128   2.387  0.2766 -0.1726  0.4384
 1194WAT     H1 4850   2.171   0.160   2.456  1.1699  1.5640  0.4274
 1194WAT     H2 4851   2.210   0.184   2.312  0.7906 -0.6958 -0.0948
 1194WAT    EPW 4852   2.218   0.140   2.386  0.4622 -0.0126  0.3666
 1195WAT      O 4853   1.484   0.215   1.197 -0.2168 -0.1016 -0.1421
 1195WAT     H1 4854   1.480   0.236   1.104 -0.6252 -1.6386 -0.4873
 1195WAT     H2 4855   1.413   0.153   1.211  1.1734 -1.5724  0.7311
 1195WAT    EPW 4856   1.474   0.210   1.187 -0.0873 -0.4983 -0.0725
 1196WAT      O 4857   1.388   1.416   3.555 -0.2324 -0.0110  0.1891
 1196WAT     H1 4858   1.441   1.493   3.573  0.0303 -0.1346 -0.0535
 1196WAT     H2 4859   1.324   1.447   3.490 -2.1992  0.8653  2.4041
 1196WAT    EPW 4860   1.386   1.430   3.549 -0.4571  0.0883  0.4492
 1197WAT      O 4861   2.718   2.606   1.252  0.0415  1.0213  0.2804
 1197WAT     H1 4862   2.786   2.670   1.231  0.6213  0.3338  0.0187
 1197WAT     H2 4863   2.679   2.584   1.167  2.2334 -1.5894 -0.1817
 1197WAT    EPW 4864   2.722   2.611   1.238  0.4070  0.5863  0.1850
 1198WAT      O 4865   0.867   4.218   1.472  0.2196  0.1939  0.1178
 1198WAT     H1 4866   0.833   4.173   1.395  1.2836 -1.1114  0.3729
 1198WAT     H2 4867   0.816   4.184   1.545  1.4709 -1.1595  0.3970
 1198WAT    EPW 4868   0.856   4.208   1.471  0.5250 -0.1568  0.1883
 1199WAT      O 4869   2.758   3.978   1.142  0.7393  0.0601 -0.3123
 1199WAT     H1 4870   2.705   4.057   1.155  0.4977  0.0344 -1.0974
 1199WAT     H2 4871   2.708   3.909   1.186 -0.1034 -0.0376 -1.3540
 1199WAT    EPW 4872   2.744   3.980   1.149  0.5963  0.0438 -0.5532
 1200WAT      O 4873   0.303   1.642   2.947 -0.2007  0.0660  0.2595
 1200WAT     H1 4874   0.256   1.725   2.941  1.3754  0.9284 -1.0292
 1200WAT     H2 4875   0.306   1.609   2.857 -0.8744 -1.4542  0.7646
 1200WAT    EPW 4876   0.298   1.649   2.934 -0.0816 -0.0208  0.1562
 1201WAT      O 4877   3.714   4.208   2.052 -0.0038  0.2363  0.5020
 1201WAT     H1 4878   3.684   4.283   1.999 -0.0646  0.5880  1.0278
 1201WAT     H2 4879   3.727   4.138   1.988 -0.4676  0.5361  0.0703
 1201WAT    EPW 4880   3.712   4.209   2.036 -0.0730  0.3222  0.5144
 1202WAT      O 4881   0.184   1.620   0.047 -0.0811 -0.4352  0.3018
 1202WAT     H1 4882   0.203   1.690   0.110  1.5042 -1.2794  0.8195
 1202WAT     H2 4883   0.251   1.553   0.065  1.3182 -0.1470 -3.1240
 1202WAT    EPW 4884   0.196   1.620   0.058  0.3126 -0.5085 -0.0818
 1203WAT      O 4885   1.882   0.800   3.491  0.1973 -0.4915 -0.1432
 1203WAT     H1 4886   1.845   0.868   3.547  1.0306  0.9490 -1.2652
 1203WAT     H2 4887   1.850   0.718   3.528  0.1786  0.4337  2.0065
 1203WAT    EPW 4888   1.873   0.798   3.503  0.3047 -0.1795 -0.0076
 1204WAT      O 4889   0.921   0.927   0.660 -0.2617  0.0822 -0.1088
 1204WAT     H1 4890   0.873   1.002   0.696  0.5986  1.1783 -1.1738
 1204WAT     H2 4891   0.876   0.907   0.578  1.6392  1.8084 -1.6705
 1204WAT    EPW 4892   0.909   0.934   0.654  0.1025  0.4544 -0.4553
 1205WAT      O 4893   1.215   0.673   0.995  0.0828 -0.2939 -0.1428
 1205WAT     H1 4894   1.143   0.716   0.948 -1.4313 -2.2701  0.2359
 1205WAT     H2 4895   1.257   0.618   0.929  1.8752  1.4661 -0.5729
 1205WAT    EPW 4896   1.211   0.672   0.980  0.1195 -0.3224 -0.1496
 1206WAT      O 4897   3.407   3.221   3.332 -0.2590 -0.6165 -0.0540
 1206WAT     H1 4898   3.387   3.308   3.296 -1.1247 -0.7068  0.2055
 1206WAT     H2 4899   3.334   3.166   3.304  0.0660 -1.1591  0.1626
 1206WAT    EPW 4900   3.395   3.225   3.323 -0.3303 -0.7000  0.0088
 1207WAT      O 4901   0.359   0.725   3.681  0.0120 -0.5332  0.1728
 1207WAT     H1 4902   0.264   0.730   3.682 -0.0826 -1.5184 -1.3168
 1207WAT     H2 4903   0.385   0.741   3.772 -1.4408  1.5735  0.2870
 1207WAT    EPW 4904   0.350   0.728   3.693 -0.1921 -0.3853 -0.0086
 1208WAT      O 4905   3.619   0.355   1.539 -0.1637  0.0158  0.0711
 1208WAT     H1 4906   3.675   0.301   1.594  1.9293  3.5202  1.7937
 1208WAT     H2 4907   3.675   0.379   1.465 -1.3642 -0.8771 -1.1639
 1208WAT    EPW 4908   3.634   0.351   1.536 -0.0460  0.3603  0.1354
 1209WAT      O 4909   2.034   3.420   0.245  0.1390 -0.3500  0.0985
 1209WAT     H1 4910   2.082   3.339   0.264 -1.1982 -0.9519  1.1453
 1209WAT     H2 4911   1.954   3.412   0.297  0.0034  1.6883  0.2704
 1209WAT    EPW 4912   2.030   3.408   0.255 -0.0553 -0.1606  0.2592
 1210WAT      O 4913   3.554   0.679   3.403  0.1069 -0.5946  0.1305
 1210WAT     H1 4914   3.511   0.595   3.385  1.6662 -1.6292  1.0394
 1210WAT     H2 4915   3.497   0.721   3.467 -1.1235 -0.5534 -0.9405
 1210WAT    EPW 4916   3.541   0.673   3.409  0.1503 -0.7256  0.1091
 1211WAT      O 4917   0.905   3.157   2.847  0.6153 -0.3252 -0.3097
 1211WAT     H1 4918   0.945   3.153   2.934  2.4307  0.4291 -1.0543
 1211WAT     H2 4919   0.874   3.247   2.839  0.4806 -0.3843 -0.4522
 1211WAT    EPW 4920   0.906   3.168   2.857  0.8369 -0.2335 -0.4267
 1212WAT      O 4921   0.648   3.317   1.595 -0.2198 -0.2349  0.7991
 1212WAT     H1 4922   0.641   3.303   1.501 -2.6428 -0.9223  1.0046
 1212WAT     H2 4923   0.711   3.251   1.624  0.0601 -0.4467 -0.2352
 1212WAT    EPW 4924   0.656   3.306   1.586 -0.5024 -0.3535  0.6898
 1213WAT      O 4925   1.380   2.444   1.173  0.2100  0.0507  0.0222
 1213WAT     H1 4926   1.443   2.482   1.112  1.3857 -0.7515  0.6959
 1213WAT     H2 4927   1.408   2.352   1.182 -2.5560 -1.0814 -1.6004
 1213WAT    EPW 4928   1.392   2.437   1.166  0.0002 -0.2044 -0.1030
 1214WAT      O 4929   3.621   4.099   2.315  0.0385  0.3177  0.2825
 1214WAT     H1 4930   3.686   4.136   2.256 -1.4648 -0.3676 -1.9448
 1214WAT     H2 4931   3.667   4.029   2.361  0.8138 -0.4897 -1.6078
 1214WAT    EPW 4932   3.636   4.095   2.313 -0.0575  0.1208 -0.2606
 1215WAT      O 4933   0.493   1.443   1.498  0.6918  0.8437  0.0656
 1215WAT     H1 4934   0.452   1.425   1.583  3.1305  0.3030  1.2233
 1215WAT     H2 4935   0.483   1.537   1.486 -1.2762  0.6723  0.0107
 1215WAT    EPW 4936   0.486   1.453   1.508  0.7539  0.7498  0.2110
 1216WAT      O 4937   1.530   0.623   1.750  0.1774  0.0294 -0.3016
 1216WAT     H1 4938   1.593   0.665   1.810  0.8851 -0.7563 -0.4766
 1216WAT     H2 4939   1.555   0.653   1.663  1.2351 -1.3810 -0.5204
 1216WAT    EPW 4940   1.542   0.633   1.747  0.4103 -0.2602 -0.3535
 1217WAT      O 4941   3.087   2.909   0.953 -0.0649 -0.5319 -0.1162
 1217WAT     H1 4942   3.164   2.872   0.910 -0.3167 -1.5945  0.3268
 1217WAT     H2 4943   3.064   2.845   1.020 -0.1182  0.7471  1.1222
 1217WAT    EPW 4944   3.094   2.896   0.956 -0.1051 -0.5033  0.1056
 1218WAT      O 4945   2.452   0.310   2.438  0.4083  0.1930  0.2117
 1218WAT     H1 4946   2.380   0.249   2.422 -0.3543  1.1297  0.0233
 1218WAT     H2 4947   2.450   0.325   2.533  1.0448 -0.5910  0.3677
 1218WAT    EPW 4948   2.442   0.304   2.449  0.3916  0.2131  0.2074
 1219WAT      O 4949   2.815   1.031   1.938 -0.2620 -0.4458  0.1212
 1219WAT     H1 4950   2.779   1.086   2.007  0.0769 -1.6103  1.2658
 1219WAT     H2 4951   2.749   1.031   1.869 -2.0743 -1.7477  1.7494
 1219WAT    EPW 4952   2.802   1.038   1.938 -0.4563 -0.7711  0.4869
 1220WAT      O 4953   0.058   1.507   0.543 -0.0577 -0.1082  0.0012
 1220WAT     H1 4954  -0.005   1.554   0.597  0.3945  1.7352 -1.0121
 1220WAT     H2 4955   0.144   1.537   0.573  0.2753 -0.8730 -0.1516
 1220WAT    EPW 4956   0.061   1.517   0.554  0.0459  0.0341 -0.1526
 1221WAT      O 4957   1.555   3.323   0.998 -0.0532  0.4461  0.4496
 1221WAT     H1 4958   1.566   3.386   1.070 -1.5772  1.0169  0.2227
 1221WAT     H2 4959   1.509   3.249   1.037  0.0990  0.2722  0.3028
 1221WAT    EPW 4960   1.551   3.322   1.013 -0.2342  0.4985  0.4003
 1222WAT      O 4961   1.120   0.401   3.816 -0.1378  0.2207  0.1172
 1222WAT     H1 4962   1.150   0.483   3.855  0.7670  0.0836 -0.2692
 1222WAT     H2 4963   1.146   0.334   3.880 -0.8632  0.2178  0.4260
 1222WAT    EPW 4964   1.128   0.403   3.830 -0.1142  0.2022  0.1070
 1223WAT      O 4965   2.945   0.961   0.453  0.3829 -0.1001 -0.1265
 1223WAT     H1 4966   2.901   0.911   0.384  2.2105 -1.2107 -0.5722
 1223WAT     H2 4967   2.907   1.048   0.448  0.6219 -0.0598 -2.7582
 1223WAT    EPW 4968   2.935   0.966   0.444  0.6555 -0.2412 -0.5324
 1224WAT      O 4969   1.502   0.802   2.112  0.1453  0.2656  0.2824
 1224WAT     H1 4970   1.447   0.724   2.114 -0.4686  0.7076  0.9034
 1224WAT     H2 4971   1.522   0.820   2.204  0.5453  0.6607  0.1247
 1224WAT    EPW 4972   1.497   0.794   2.124  0.1171  0.3760  0.3435
 1225WAT      O 4973   3.090   3.239   3.586 -0.4408 -0.5315  0.2817
 1225WAT     H1 4974   3.090   3.267   3.494 -0.2896 -1.3620  0.0164
 1225WAT     H2 4975   3.180   3.210   3.602 -0.1933  0.5884  1.0148
 1225WAT    EPW 4976   3.102   3.239   3.576 -0.3882 -0.4933  0.3434
 1226WAT      O 4977   3.679   2.390   0.336  0.3776  0.6185 -0.1088
 1226WAT     H1 4978   3.690   2.302   0.373  2.6508  0.1185 -1.7259
 1226WAT     H2 4979   3.591   2.390   0.299 -0.1341 -0.5187  1.0372
 1226WAT    EPW 4980   3.669   2.378   0.336  0.6099  0.4026 -0.1709
 1227WAT      O 4981   2.008   0.022   1.627 -0.2729 -0.4009  0.2967
 1227WAT     H1 4982   1.964  -0.063   1.625  0.6632 -0.8932  0.0136
 1227WAT     H2 4983   2.097   0.004   1.598 -0.0632  0.6874  0.2079
 1227WAT    EPW 4984   2.014   0.008   1.623 -0.1218 -0.3223  0.2476
 1228WAT      O 4985   0.467   0.986   3.610 -0.4479 -0.4206 -0.3561
 1228WAT     H1 4986   0.394   1.002   3.551  1.0154 -0.7939 -2.4127
 1228WAT     H2 4987   0.451   0.898   3.645 -0.8703 -0.5995 -0.9791
 1228WAT    EPW 4988   0.456   0.977   3.607 -0.3106 -0.4934 -0.7095
 1229WAT      O 4989   1.165   3.606   3.565 -0.6200 -0.1175 -0.8533
 1229WAT     H1 4990   1.197   3.526   3.606  1.4493  0.4739 -1.2034
 1229WAT     H2 4991   1.099   3.639   3.626  2.0143  0.5036  1.9526
 1229WAT    EPW 4992   1.161   3.600   3.578  0.0004  0.0424 -0.5294
 1230WAT      O 4993   2.502   2.819   2.054  0.6631  0.0518 -0.1363
 1230WAT     H1 4994   2.505   2.724   2.040  1.1120  0.2056 -1.1520
 1230WAT     H2 4995   2.554   2.832   2.133  1.0217 -0.4987 -0.2707
 1230WAT    EPW 4996   2.509   2.808   2.062  0.7696 -0.0006 -0.2880
 1231WAT      O 4997   1.920   4.243   3.155  0.9811  0.2102 -0.3460
 1231WAT     H1 4998   1.907   4.217   3.064  0.0972 -0.0175 -0.1635
 1231WAT     H2 4999   2.009   4.278   3.158  0.6427  1.2345 -1.5397
 1231WAT    EPW 5000   1.930   4.244   3.144  0.8198  0.3153 -0.4794
 1232WAT      O 5001   0.582   2.558   3.213  0.0285 -0.1201  0.0953
 1232WAT     H1 5002   0.676   2.541   3.207  0.3992  0.8712  2.2191
 1232WAT     H2 5003   0.574   2.653   3.204 -0.7226 -0.1490  0.3850
 1232WAT    EPW 5004   0.594   2.568   3.211 -0.0217  0.0068  0.4136
 1233WAT      O 5005   3.066   4.198   3.205  0.0191  0.3005  0.3041
 1233WAT     H1 5006   3.144   4.182   3.257 -0.6031 -0.4076  1.0500
 1233WAT     H2 5007   3.073   4.290   3.179  1.4047  0.0784 -0.1944
 1233WAT    EPW 5008   3.077   4.208   3.208  0.1198  0.1778  0.3367
 1234WAT      O 5009   0.999   3.356   2.603  0.0398  0.3671 -0.6032
 1234WAT     H1 5010   0.953   3.315   2.529  0.1186 -0.8543  0.0000
 1234WAT     H2 5011   1.077   3.395   2.564  0.2014 -0.4713 -1.1426
 1234WAT    EPW 5012   1.003   3.355   2.588  0.0715  0.0954 -0.5948
 1235WAT      O 5013   1.073   1.762   2.431  0.7286  0.0886 -0.0270
 1235WAT     H1 5014   1.068   1.692   2.365  1.2132  0.5619 -0.5761
 1235WAT     H2 5015   1.166   1.765   2.456  0.4110 -0.7180  1.3971
 1235WAT    EPW 5016   1.085   1.753   2.425  0.7506  0.0447  0.0884
 1236WAT      O 5017   0.288   3.848   1.211 -0.0538  0.0711 -0.5595
 1236WAT     H1 5018   0.289   3.938   1.242  2.4012  0.0439 -0.4081
 1236WAT     H2 5019   0.290   3.856   1.116  0.8058  0.1954 -0.5369
 1236WAT    EPW 5020   0.288   3.861   1.203  0.3834  0.0839 -0.5366
 1237WAT      O 5021   3.039   3.549   1.961 -0.1597 -0.1989 -0.0418
 1237WAT     H1 5022   3.054   3.458   1.987 -0.5228  0.1099  1.3287
 1237WAT     H2 5023   2.960   3.574   2.009 -0.3681  0.6856 -0.8243
 1237WAT    EPW 5024   3.031   3.540   1.971 -0.2350 -0.0415  0.0358
 1238WAT      O 5025   3.564   1.160   1.116 -0.1761 -0.0863 -0.4908
 1238WAT     H1 5026   3.654   1.131   1.128  0.9712  2.4097 -2.1620
 1238WAT     H2 5027   3.542   1.205   1.197  0.5600  0.3426 -0.5190
 1238WAT    EPW 5028   3.573   1.162   1.128  0.0723  0.2994 -0.7149
 1239WAT      O 5029   0.927   2.953   0.657  1.2076  0.4456 -0.2157
 1239WAT     H1 5030   0.930   2.863   0.692 -0.1505  0.6035  0.3834
 1239WAT     H2 5031   0.922   2.941   0.562  0.5299 -0.1574 -0.1215
 1239WAT    EPW 5032   0.927   2.939   0.649  0.9391  0.3869 -0.1243
 1240WAT      O 5033   1.373   3.607   0.743 -0.2751  0.3333 -0.4514
 1240WAT     H1 5034   1.427   3.668   0.793 -2.1309  2.3630 -0.7358
 1240WAT     H2 5035   1.301   3.584   0.802 -0.3419 -0.4808 -0.8377
 1240WAT    EPW 5036   1.371   3.612   0.757 -0.5287  0.4936 -0.5398
 1241WAT      O 5037   1.572   0.553   3.768  0.4245 -0.2927  0.0469
 1241WAT     H1 5038   1.515   0.551   3.845 -0.2320  1.5762 -0.3429
 1241WAT     H2 5039   1.612   0.640   3.770 -1.2079  0.6572 -2.8173
 1241WAT    EPW 5040   1.570   0.564   3.778  0.1226  0.0791 -0.3823
 1242WAT      O 5041   2.603   2.558   2.030 -0.2005 -0.0157  0.0148
 1242WAT     H1 5042   2.597   2.540   1.937 -0.2606  1.5430 -0.3169
 1242WAT     H2 5043   2.694   2.583   2.044 -0.2051 -0.1880  0.3533
 1242WAT    EPW 5044   2.614   2.559   2.020 -0.2090  0.1672  0.0157
 1243WAT      O 5045   0.421   1.751   1.021 -0.0878  0.0219 -0.1328
 1243WAT     H1 5046   0.387   1.836   1.049  1.0497 -0.0615  1.6841
 1243WAT     H2 5047   0.464   1.716   1.099 -0.0070 -1.9621 -1.0150
 1243WAT    EPW 5048   0.422   1.758   1.035  0.0729 -0.2508 -0.0095
 1244WAT      O 5049   3.181   4.030   3.780 -0.1876  0.8244 -0.3229
 1244WAT     H1 5050   3.241   3.999   3.848 -0.9486  1.1060  0.4891
 1244WAT     H2 5051   3.173   4.123   3.797  0.9962  1.2569 -1.9025
 1244WAT    EPW 5052   3.188   4.038   3.791 -0.1318  0.9186 -0.4242
 1245WAT      O 5053   0.294   2.360   2.844 -0.0740  0.2033  0.3358
 1245WAT     H1 5054   0.273   2.282   2.894 -2.0015  0.3924 -0.0929
 1245WAT     H2 5055   0.368   2.399   2.889  1.0342 -1.9240  0.4768
 1245WAT    EPW 5056   0.301   2.355   2.856 -0.1820 -0.0524  0.2979
 1246WAT      O 5057   0.121   0.564   3.412 -0.0104  0.3003  0.4081
 1246WAT     H1 5058   0.146   0.540   3.501 -1.4783  1.6514  1.2220
 1246WAT     H2 5059   0.061   0.637   3.422 -1.7430 -0.7426 -1.5913
 1246WAT    EPW 5060   0.117   0.570   3.425 -0.4325  0.3410  0.2517
 1247WAT      O 5061   1.736   3.970   3.582  0.6632  0.7934  0.0603
 1247WAT     H1 5062   1.662   4.014   3.623  0.9051  0.5094  0.8109
 1247WAT     H2 5063   1.713   3.966   3.489 -0.3352  0.5677  0.3102
 1247WAT    EPW 5064   1.723   3.975   3.575  0.5634  0.7262  0.1922
 1248WAT      O 5065   0.584   2.534   0.412  0.0441  0.1419 -0.3306
 1248WAT     H1 5066   0.574   2.629   0.419 -0.8936  0.1241 -1.1093
 1248WAT     H2 5067   0.677   2.518   0.425  0.2868  1.2218 -0.6518
 1248WAT    EPW 5068   0.595   2.545   0.414 -0.0476  0.2820 -0.4757
 1249WAT      O 5069   1.861   2.352   0.033  0.0429  0.8060  0.2215
 1249WAT     H1 5070   1.893   2.425   0.086  1.2951  0.3211  0.1666
 1249WAT     H2 5071   1.790   2.314   0.084 -0.9416  2.3322  0.0371
 1249WAT    EPW 5072   1.856   2.357   0.046  0.0782  0.9434  0.1899
 1250WAT      O 5073   2.310   0.587   3.435 -0.1585  0.2380 -0.0687
 1250WAT     H1 5074   2.372   0.535   3.384 -0.0272  0.2493  0.0809
 1250WAT     H2 5075   2.357   0.666   3.459 -0.2928  0.3344 -0.1201
 1250WAT    EPW 5076   2.324   0.590   3.432 -0.1589  0.2522 -0.0558
 1251WAT      O 5077   2.795   4.372   3.007 -0.0684 -0.1767 -0.5343
 1251WAT     H1 5078   2.882   4.345   2.977 -0.2082  0.3326 -1.4534
 1251WAT     H2 5079   2.756   4.292   3.042  0.6638 -0.4711 -0.3639
 1251WAT    EPW 5080   2.801   4.358   3.007  0.0097 -0.1483 -0.6331
 1252WAT      O 5081   2.619   0.615   1.090 -0.0373 -0.0929 -0.2365
 1252WAT     H1 5082   2.529   0.620   1.058  0.0641  0.0203 -0.5079
 1252WAT     H2 5083   2.611   0.607   1.185 -0.3353 -0.1597 -0.2692
 1252WAT    EPW 5084   2.606   0.615   1.098 -0.0633 -0.0868 -0.2766
 1253WAT      O 5085   2.539   2.809   0.122  0.4773  0.1035 -0.7666
 1253WAT     H1 5086   2.615   2.864   0.140  0.8988 -0.6383 -0.1812
 1253WAT     H2 5087   2.490   2.855   0.054  0.2686  1.7052  0.4147
 1253WAT    EPW 5088   2.543   2.822   0.116  0.5054  0.2169 -0.5336
 1254WAT      O 5089   1.968   2.329   1.019  0.3251 -0.5631  0.4522
 1254WAT     H1 5090   2.060   2.343   0.996  0.0141  0.9456  0.0431
 1254WAT     H2 5091   1.967   2.242   1.058  1.8457 -0.8131  0.0138
 1254WAT    EPW 5092   1.980   2.319   1.021  0.4846 -0.3971  0.3404
 1255WAT      O 5093   0.853   0.463   0.169  0.3513  0.0884  0.2768
 1255WAT     H1 5094   0.823   0.388   0.219 -0.1702 -0.5877 -0.9995
 1255WAT     H2 5095   0.842   0.437   0.077  2.0689  0.9475 -0.2150
 1255WAT    EPW 5096   0.848   0.450   0.163  0.5090  0.1125  0.0436
 1256WAT      O 5097   3.625   3.012   2.655 -0.4657 -0.1467 -0.4749
 1256WAT     H1 5098   3.533   3.020   2.631 -1.0759 -1.4147  1.2202
 1256WAT     H2 5099   3.659   3.101   2.654 -1.5999  0.2914 -1.5000
 1256WAT    EPW 5100   3.618   3.025   2.652 -0.6958 -0.2562 -0.3865
 1257WAT      O 5101   2.087   2.776   0.249  0.5600  0.8296  0.5313
 1257WAT     H1 5102   2.159   2.821   0.205  1.8657 -0.4020  1.3181
 1257WAT     H2 5103   2.126   2.696   0.284 -1.4081 -0.3669  0.1818
 1257WAT    EPW 5104   2.101   2.771   0.248  0.4726  0.5093  0.5890
 1258WAT      O 5105   0.515   0.798   0.479  0.0120  0.2465 -0.3530
 1258WAT     H1 5106   0.492   0.878   0.431  0.3663  0.1987 -0.6078
 1258WAT     H2 5107   0.495   0.818   0.570 -1.2856  0.1164 -0.5885
 1258WAT    EPW 5108   0.509   0.811   0.485 -0.1124  0.2230 -0.4177
 1259WAT      O 5109   2.141   4.205   2.634  0.2473  0.8909 -0.2374
 1259WAT     H1 5110   2.058   4.225   2.591 -0.9000  0.2434  1.5851
 1259WAT     H2 5111   2.169   4.288   2.672 -1.1330  0.5595  1.6622
 1259WAT    EPW 5112   2.134   4.218   2.633 -0.0860  0.7618  0.2535
 1260WAT      O 5113   2.720   0.269   3.530  0.1746 -0.4933 -0.0670
 1260WAT     H1 5114   2.734   0.208   3.603  1.2553  0.3276  0.4578
 1260WAT     H2 5115   2.799   0.323   3.529 -0.2979  0.2236 -1.1749
 1260WAT    EPW 5116   2.733   0.268   3.540  0.2548 -0.2905 -0.1439
 1261WAT      O 5117   0.195   2.782   0.398  0.4504  0.2054 -0.0647
 1261WAT     H1 5118   0.136   2.803   0.471 -0.4209 -2.3722  0.0790
 1261WAT     H2 5119   0.178   2.851   0.334 -1.5713  0.4532  0.6515
 1261WAT    EPW 5120   0.185   2.794   0.399  0.0688 -0.1019  0.0487
 1262WAT      O 5121   0.370   0.605   1.832  0.0635 -0.0133  0.4427
 1262WAT     H1 5122   0.363   0.699   1.813  0.0600 -0.0328  0.3475
 1262WAT     H2 5123   0.373   0.600   1.928  0.6596  0.1257  0.4386
 1262WAT    EPW 5124   0.370   0.617   1.842  0.1417  0.0025  0.4296
 1263WAT      O 5125   2.486   3.939   1.563 -0.4873 -0.3758  0.1874
 1263WAT     H1 5126   2.512   4.010   1.622  1.5158  0.5041 -1.6292
 1263WAT     H2 5127   2.565   3.921   1.512 -1.8642 -1.7587 -1.5518
 1263WAT    EPW 5128   2.500   3.946   1.564 -0.4047 -0.4421 -0.2816
 1264WAT      O 5129   3.376   1.227   2.748  0.3046 -0.0560 -0.2812
 1264WAT     H1 5130   3.448   1.185   2.795  0.4472  0.2394 -0.2383
 1264WAT     H2 5131   3.400   1.222   2.656  0.0812 -0.5271 -0.3190
 1264WAT    EPW 5132   3.388   1.220   2.742  0.2940 -0.0792 -0.2805
 1265WAT      O 5133   2.432   1.578   1.515 -0.4948  0.0535 -0.4300
 1265WAT     H1 5134   2.481   1.658   1.535 -1.4855  0.7728 -0.7649
 1265WAT     H2 5135   2.369   1.571   1.587 -0.7180 -0.1765 -0.6475
 1265WAT    EPW 5136   2.430   1.588   1.527 -0.6549  0.1180 -0.5029
 1266WAT      O 5137   3.319   3.422   0.018 -0.5547 -0.8713 -0.2565
 1266WAT     H1 5138   3.229   3.392   0.002 -1.0489  0.3595  0.1471
 1266WAT     H2 5139   3.326   3.504  -0.031  0.0113 -0.4266  0.5506
 1266WAT    EPW 5140   3.308   3.429   0.009 -0.5452 -0.6503 -0.0968
 1267WAT      O 5141   0.101   3.926   0.547 -0.4237 -0.0470 -0.2043
 1267WAT     H1 5142   0.089   4.015   0.579 -1.6740  0.3296 -1.5783
 1267WAT     H2 5143   0.038   3.873   0.597 -0.9894  0.1897 -0.6497
 1267WAT    EPW 5144   0.091   3.931   0.557 -0.6632  0.0339 -0.4442
 1268WAT      O 5145   2.625   0.999   1.738 -0.6789 -0.0284 -0.7410
 1268WAT     H1 5146   2.545   1.017   1.788 -0.1284 -1.0706  0.5768
 1268WAT     H2 5147   2.621   0.906   1.719  1.1994 -0.6061  1.2572
 1268WAT    EPW 5148   2.614   0.989   1.742 -0.3585 -0.2421 -0.3036
 1269WAT      O 5149   1.095   2.258   3.722 -0.1155  0.0183 -0.0586
 1269WAT     H1 5150   1.154   2.318   3.677 -0.8534  2.2635  1.7362
 1269WAT     H2 5151   1.014   2.309   3.735 -0.3173 -0.8015  2.7457
 1269WAT    EPW 5152   1.092   2.273   3.718 -0.2394  0.2063  0.5480
 1270WAT      O 5153   2.879   1.202   0.802  0.3912  0.1296  0.2223
 1270WAT     H1 5154   2.784   1.198   0.798  0.3322  1.6330 -0.2528
 1270WAT     H2 5155   2.907   1.110   0.801 -1.0186 -0.3137 -0.2130
 1270WAT    EPW 5156   2.870   1.189   0.802  0.1975  0.2694  0.1022
 1271WAT      O 5157   1.927   3.840   0.760  0.1264  0.5896  0.0479
 1271WAT     H1 5158   1.996   3.883   0.708 -0.8308  0.9930 -0.9438
 1271WAT     H2 5159   1.971   3.767   0.803  1.0500  0.4702 -1.0498
 1271WAT    EPW 5160   1.942   3.836   0.759  0.1220  0.6270 -0.2277
 1272WAT      O 5161   0.270   1.072   3.187 -0.1751 -0.5120 -0.2770
 1272WAT     H1 5162   0.338   1.005   3.189 -0.1150 -0.4905 -1.2695
 1272WAT     H2 5163   0.209   1.043   3.119  0.3031  0.8492 -1.3425
 1272WAT    EPW 5164   0.271   1.059   3.179 -0.1041 -0.3296 -0.5484
 1273WAT      O 5165   3.048   0.819   2.745  0.3903  0.3386  0.2882
 1273WAT     H1 5166   3.065   0.796   2.836 -0.8432  1.8738  0.9608
 1273WAT     H2 5167   2.980   0.758   2.716 -0.4427  0.9125  0.9769
 1273WAT    EPW 5168   3.041   0.808   2.753  0.1177  0.6168  0.4678
 1274WAT      O 5169   2.924   2.620   0.178 -0.0436  0.1941  0.1174
 1274WAT     H1 5170   2.881   2.646   0.260 -1.4480  0.2418 -0.6066
 1274WAT     H2 5171   2.886   2.534   0.157 -2.3356  1.6233 -2.2090
 1274WAT    EPW 5172   2.914   2.612   0.186 -0.5312  0.3889 -0.2849
 1275WAT      O 5173   2.511   2.233   1.826  0.1009  0.0710 -0.3176
 1275WAT     H1 5174   2.486   2.141   1.817 -0.5575  0.1736  0.3638
 1275WAT     H2 5175   2.591   2.231   1.878 -0.3806 -0.0791  0.4359
 1275WAT    EPW 5176   2.518   2.220   1.831 -0.0494  0.0647 -0.1283
 1276WAT      O 5177   3.056   3.853   2.729  0.2456  0.1584 -0.3020
 1276WAT     H1 5178   3.148   3.827   2.734 -0.2939 -1.8311  0.2448
 1276WAT     H2 5179   3.041   3.907   2.807  0.7106 -0.3213  0.1169
 1276WAT    EPW 5180   3.066   3.857   2.740  0.2358 -0.1672 -0.1747
 1277WAT      O 5181   2.236   3.767   3.353 -0.0106 -0.2864  0.2385
 1277WAT     H1 5182   2.215   3.697   3.292 -0.1277 -0.7138  0.7618
 1277WAT     H2 5183   2.222   3.847   3.303  3.8817 -0.5727 -1.6784
 1277WAT    EPW 5184   2.232   3.768   3.339  0.4873 -0.3806  0.0547
 1278WAT      O 5185   3.022   4.022   0.838 -0.1054 -0.2180  0.2759
 1278WAT     H1 5186   3.002   4.115   0.841 -0.2871 -0.2540  0.2027
 1278WAT     H2 5187   2.973   3.989   0.762 -0.1853 -0.4061  0.4077
 1278WAT    EPW 5188   3.013   4.030   0.828 -0.1399 -0.2476  0.2836
 1279WAT      O 5189   0.765   3.854   3.080  0.2387 -0.6313 -0.3323
 1279WAT     H1 5190   0.849   3.811   3.096  0.3595 -0.0886  0.5019
 1279WAT     H2 5191   0.706   3.818   3.147  0.0571 -0.2841 -0.3055
 1279WAT    EPW 5192   0.768   3.843   3.091  0.2307 -0.5139 -0.2187
 1280WAT      O 5193   0.245   0.717   1.063 -0.4259 -0.5021 -0.3288
 1280WAT     H1 5194   0.319   0.756   1.018 -2.0995  0.8935 -2.0354
 1280WAT     H2 5195   0.219   0.643   1.008 -0.1212 -1.1910  0.4341
 1280WAT    EPW 5196   0.251   0.712   1.050 -0.6065 -0.4089 -0.4532
 1281WAT      O 5197   3.403   2.910   2.867  0.3555  0.1910  0.0276
 1281WAT     H1 5198   3.468   2.840   2.858 -0.6374 -0.5786 -1.5128
 1281WAT     H2 5199   3.454   2.988   2.889  1.6207 -0.7267  0.4293
 1281WAT    EPW 5200   3.418   2.911   2.869  0.3914 -0.0315 -0.1226
 1282WAT      O 5201   0.248   1.095   3.468  0.3271  0.0419 -0.0383
 1282WAT     H1 5202   0.164   1.059   3.497  0.8538 -0.2664  1.1788
 1282WAT     H2 5203   0.240   1.102   3.373 -0.6167 -1.1808 -0.0727
 1282WAT    EPW 5204   0.236   1.091   3.459  0.2721 -0.1600  0.1177
 1283WAT      O 5205   1.218   2.643   3.164 -0.7267 -0.0377 -0.0034
 1283WAT     H1 5206   1.199   2.555   3.197  1.9042 -0.5798  0.3075
 1283WAT     H2 5207   1.261   2.687   3.237  1.6289  0.1014 -1.3895
 1283WAT    EPW 5208   1.221   2.637   3.178 -0.0690 -0.0908 -0.1452
 1284WAT      O 5209   0.876   2.281   2.639  0.3629 -0.2500 -0.1926
 1284WAT     H1 5210   0.904   2.190   2.637  0.7398 -0.1292 -0.9875
 1284WAT     H2 5211   0.889   2.312   2.549 -0.0685  0.4944 -0.0119
 1284WAT    EPW 5212   0.881   2.273   2.627  0.3557 -0.1359 -0.2736
 1285WAT      O 5213   1.764   1.851   0.691  0.3688  0.1028 -0.1342
 1285WAT     H1 5214   1.733   1.783   0.750  0.2074  1.4441  1.3966
 1285WAT     H2 5215   1.858   1.837   0.684  0.7116  1.0226  1.9986
 1285WAT    EPW 5216   1.772   1.840   0.698  0.3927  0.4010  0.3490
 1286WAT      O 5217   0.635   3.688   2.597 -0.3629 -0.1245  0.4615
 1286WAT     H1 5218   0.689   3.647   2.529 -0.5745  1.0844 -0.4682
 1286WAT     H2 5219   0.554   3.712   2.551  0.0699  2.0460  0.7596
 1286WAT    EPW 5220   0.631   3.686   2.582 -0.3337  0.3212  0.3782
 1287WAT      O 5221   1.216   1.131   0.960 -0.2377  0.2980 -0.4743
 1287WAT     H1 5222   1.278   1.204   0.955 -0.3656  0.4302 -0.1157
 1287WAT     H2 5223   1.220   1.091   0.873  1.8977 -0.9535  0.1021
 1287WAT    EPW 5224   1.225   1.135   0.948  0.0271  0.1503 -0.3510
 1288WAT      O 5225   1.515   1.630   1.435 -0.5871  0.3803 -0.1004
 1288WAT     H1 5226   1.483   1.573   1.505 -0.1046 -1.0981 -1.0301
 1288WAT     H2 5227   1.516   1.574   1.357 -0.1763  1.6991 -1.0875
 1288WAT    EPW 5228   1.510   1.615   1.434 -0.4693  0.3593 -0.3532
 1289WAT      O 5229   1.522   3.171   2.104 -0.0797  0.2613  0.2775
 1289WAT     H1 5230   1.483   3.259   2.102  1.3946  0.9696  0.8655
 1289WAT     H2 5231   1.585   3.172   2.032 -0.7923 -0.7066 -0.3798
 1289WAT    EPW 5232   1.525   3.183   2.095  0.0208  0.2271  0.2684
 1290WAT      O 5233   3.195   2.067   0.988  0.5889 -0.3692  0.1550
 1290WAT     H1 5234   3.277   2.113   0.968  1.0425 -0.4000  1.8514
 1290WAT     H2 5235   3.192   2.062   1.083 -0.4284 -2.1300  0.0730
 1290WAT    EPW 5236   3.205   2.073   0.998  0.5145 -0.6055  0.3679
 1291WAT      O 5237   3.639   0.121   0.009  0.8880  0.0169  0.5869
 1291WAT     H1 5238   3.595   0.205   0.021 -0.6336 -0.2731 -2.1376
 1291WAT     H2 5239   3.568   0.057   0.006  1.7931 -0.9892 -0.1730
 1291WAT    EPW 5240   3.624   0.123   0.011  0.8067 -0.1540  0.1273
 1292WAT      O 5241   1.405   2.408   1.873 -0.2149  0.0841 -0.3156
 1292WAT     H1 5242   1.358   2.325   1.884  1.1510 -0.6520  0.3247
 1292WAT     H2 5243   1.440   2.404   1.784 -1.5223  0.7524 -0.8904
 1292WAT    EPW 5244   1.403   2.397   1.863 -0.2072  0.0752 -0.3070
 1293WAT      O 5245   3.171   2.657   2.066  0.8341  0.1493 -0.0071
 1293WAT     H1 5246   3.126   2.665   2.150 -0.0009  0.8850 -0.5103
 1293WAT     H2 5247   3.221   2.576   2.073  2.0039  0.9495  1.7814
 1293WAT    EPW 5248   3.172   2.647   2.078  0.8783  0.3519  0.1625
 1294WAT      O 5249   1.346   3.954   0.772 -0.2896  0.5667 -0.0210
 1294WAT     H1 5250   1.306   3.974   0.856 -1.6393 -1.8835  0.0375
 1294WAT     H2 5251   1.440   3.967   0.786 -0.5083  0.4497  1.7960
 1294WAT    EPW 5252   1.353   3.958   0.785 -0.4965  0.2281  0.2264
 1295WAT      O 5253   0.981   3.721   0.809  0.3600 -0.6590 -0.1929
 1295WAT     H1 5254   0.996   3.789   0.743 -0.8944  0.3854  0.5414
 1295WAT     H2 5255   0.994   3.766   0.893  0.0477 -1.4553  0.2971
 1295WAT    EPW 5256   0.984   3.736   0.812  0.1534 -0.6263 -0.0314
 1296WAT      O 5257   0.734   3.856   1.868  0.3074  0.3155 -0.3668
 1296WAT     H1 5258   0.770   3.855   1.779 -0.0483  1.6104 -0.5374
 1296WAT     H2 5259   0.740   3.947   1.895  0.8430 -0.1365  1.1387
 1296WAT    EPW 5260   0.740   3.868   1.860  0.3312  0.4266 -0.1907
 1297WAT      O 5261   1.877   0.044   2.784  0.8573  0.3141  0.0630
 1297WAT     H1 5262   1.799   0.071   2.736  2.2940  1.2444 -1.8724
 1297WAT     H2 5263   1.865  -0.050   2.797 -0.3899  0.3664 -0.5600
 1297WAT    EPW 5264   1.865   0.035   2.780  0.8823  0.4437 -0.2744
 1298WAT      O 5265   0.531   4.325   3.843  0.1064 -0.0693  0.1938
 1298WAT     H1 5266   0.545   4.230   3.853 -1.4609 -0.3019  0.3307
 1298WAT     H2 5267   0.451   4.332   3.792  0.4732  1.2040 -0.2273
 1298WAT    EPW 5268   0.523   4.313   3.837 -0.0519  0.0680  0.1563
 1299WAT      O 5269   3.066   2.248   2.113  0.2131  0.3994  0.1010
 1299WAT     H1 5270   3.038   2.299   2.036  0.4533 -0.6986 -0.7363
 1299WAT     H2 5271   3.017   2.166   2.107 -0.0771  0.4590  1.3697
 1299WAT    EPW 5272   3.056   2.244   2.102  0.2065  0.2625  0.1579
 1300WAT      O 5273   2.546   0.994   2.344  0.0768 -0.7733  0.4356
 1300WAT     H1 5274   2.489   1.062   2.380  1.6851  1.3019 -0.6601
 1300WAT     H2 5275   2.491   0.946   2.282 -0.6215  0.9317 -0.3261
 1300WAT    EPW 5276   2.531   0.997   2.341  0.1968 -0.2747  0.1906
 1301WAT      O 5277   1.975   1.979   0.221 -0.3606 -0.1792 -0.0824
 1301WAT     H1 5278   1.952   2.044   0.288  0.2933 -0.2320  0.2019
 1301WAT     H2 5279   1.957   1.894   0.263 -0.2272 -0.2045 -0.0752
 1301WAT    EPW 5280   1.970   1.976   0.236 -0.2568 -0.1895 -0.0440
 1302WAT      O 5281   1.539   0.843   2.857 -0.0847 -0.0483  0.6912
 1302WAT     H1 5282   1.553   0.936   2.838 -1.6947  0.0687 -0.1702
 1302WAT     H2 5283   1.525   0.840   2.951  1.6141  0.3207  0.9857
 1302WAT    EPW 5284   1.539   0.855   2.867 -0.0730  0.0158  0.6164
 1303WAT      O 5285   3.229   1.859   0.094 -0.6233  0.3457  0.5119
 1303WAT     H1 5286   3.165   1.880   0.026  0.0267 -1.4318 -0.7116
 1303WAT     H2 5287   3.314   1.877   0.054 -0.2756  1.9629  1.8646
 1303WAT    EPW 5288   3.232   1.864   0.080 -0.4917  0.3246  0.5289
 1304WAT      O 5289   0.780   3.864   2.795 -0.1713 -0.1109 -0.0285
 1304WAT     H1 5290   0.760   3.854   2.888 -0.0008  0.4872  0.0789
 1304WAT     H2 5291   0.750   3.783   2.755  0.0125 -0.4894  0.5905
 1304WAT    EPW 5292   0.773   3.852   2.802 -0.1246 -0.0820  0.0673
 1305WAT      O 5293   0.835   0.835   0.408  0.0983  0.3501 -0.5056
 1305WAT     H1 5294   0.773   0.907   0.395 -0.9529 -0.5809 -0.7871
 1305WAT     H2 5295   0.809   0.769   0.344  0.2329 -0.7906  0.5755
 1305WAT    EPW 5296   0.823   0.836   0.398 -0.0226  0.0768 -0.4001
 1306WAT      O 5297   0.894   2.656   3.670 -0.6260  0.9549  0.2034
 1306WAT     H1 5298   0.976   2.699   3.696  0.9926 -1.7102 -0.1758
 1306WAT     H2 5299   0.871   2.601   3.745  0.3690 -1.5803 -1.2133
 1306WAT    EPW 5300   0.901   2.654   3.684 -0.2813  0.2690 -0.0335
 1307WAT      O 5301   2.790   1.488   0.616  0.2034 -0.6639 -0.3080
 1307WAT     H1 5302   2.820   1.408   0.659  1.7772  0.3135  0.5278
 1307WAT     H2 5303   2.823   1.559   0.672  1.7291  0.6589 -2.7151
 1307WAT    EPW 5304   2.798   1.487   0.629  0.6122 -0.3605 -0.5153
 1308WAT      O 5305   2.494   2.903   0.523  0.4181  0.0626 -0.7263
 1308WAT     H1 5306   2.479   2.973   0.586  0.4075  0.7310 -1.4611
 1308WAT     H2 5307   2.412   2.853   0.522  0.0538  0.6584 -0.9516
 1308WAT    EPW 5308   2.481   2.905   0.531  0.3686  0.2293 -0.8529
 1309WAT      O 5309   3.586   1.006   2.893  0.5759 -0.4870  0.2212
 1309WAT     H1 5310   3.496   0.975   2.899  0.8007 -0.9934  1.1595
 1309WAT     H2 5311   3.591   1.077   2.957  0.7797 -0.2863 -0.0135
 1309WAT    EPW 5312   3.575   1.012   2.902  0.6324 -0.5274  0.3140
 1310WAT      O 5313   1.021   2.372   3.411 -0.7813  0.0974 -0.4838
 1310WAT     H1 5314   1.096   2.369   3.471 -0.9247  0.5738 -0.2749
 1310WAT     H2 5315   1.058   2.351   3.325 -0.4484  0.1082 -0.3435
 1310WAT    EPW 5316   1.036   2.369   3.407 -0.7563  0.1617 -0.4378
 1311WAT      O 5317   1.468   3.150   0.427 -0.4602 -0.3501 -0.0012
 1311WAT     H1 5318   1.415   3.196   0.491 -0.3521  0.4945 -0.5094
 1311WAT     H2 5319   1.424   3.066   0.414 -1.4985  0.2173 -0.1907
 1311WAT    EPW 5320   1.455   3.145   0.433 -0.5829 -0.1639 -0.0932
 1312WAT      O 5321   2.515   4.162   0.388 -0.1283  0.1457  0.4025
 1312WAT     H1 5322   2.518   4.217   0.309  0.3012 -0.6327 -0.1384
 1312WAT     H2 5323   2.606   4.155   0.415 -0.1817 -0.2738  0.4798
 1312WAT    EPW 5324   2.527   4.168   0.381 -0.0787 -0.0123  0.3414
 1313WAT      O 5325   0.299   2.605   3.296 -0.0886 -0.3005  0.1036
 1313WAT     H1 5326   0.284   2.647   3.211 -0.3439 -1.2513 -0.3295
 1313WAT     H2 5327   0.392   2.583   3.297  0.6243  2.3180  1.2983
 1313WAT    EPW 5328   0.309   2.608   3.285 -0.0283 -0.0805  0.2041
 1314WAT      O 5329   0.153   3.291   1.394  0.3160 -0.6906  0.3684
 1314WAT     H1 5330   0.228   3.342   1.425  0.8710 -0.4322 -1.2914
 1314WAT     H2 5331   0.088   3.356   1.369  0.5814 -0.8063 -0.6713
 1314WAT    EPW 5332   0.155   3.306   1.395  0.4242 -0.6718  0.0124
 1315WAT      O 5333   2.047   1.045   3.462 -0.3590 -0.2369 -0.2123
 1315WAT     H1 5334   2.021   1.093   3.541 -1.6798  0.3154 -0.9493
 1315WAT     H2 5335   2.028   0.953   3.483 -1.2260 -0.0380 -0.0636
 1315WAT    EPW 5336   2.041   1.039   3.475 -0.6476 -0.1378 -0.2899
 1316WAT      O 5337   1.242   3.086   0.668 -0.1250 -0.2604  0.0357
 1316WAT     H1 5338   1.243   3.009   0.724 -0.0505  0.5423  1.1869
 1316WAT     H2 5339   1.210   3.055   0.584  1.0762 -1.7842  0.1036
 1316WAT    EPW 5340   1.238   3.072   0.665  0.0433 -0.3555  0.1965
 1317WAT      O 5341   0.895   2.163   1.225  0.2055  0.1730  0.2214
 1317WAT     H1 5342   0.941   2.246   1.233  0.1427  0.4157 -1.6920
 1317WAT     H2 5343   0.964   2.097   1.222  0.2841  0.2203  0.8790
 1317WAT    EPW 5344   0.910   2.165   1.226  0.2076  0.2112  0.0558
 1318WAT      O 5345   2.183   1.741   2.295 -0.0541 -0.4693  0.2282
 1318WAT     H1 5346   2.228   1.662   2.267  0.5886  0.1803 -0.6384
 1318WAT     H2 5347   2.157   1.724   2.385 -0.2674 -1.8095 -0.0700
 1318WAT    EPW 5348   2.185   1.729   2.303  0.0025 -0.5604  0.0746
 1319WAT      O 5349   0.892   0.847   2.601 -0.2647  0.8578 -0.0874
 1319WAT     H1 5350   0.821   0.911   2.591 -0.6956  0.5946  1.1492
 1319WAT     H2 5351   0.880   0.787   2.527 -1.2007  0.9425 -0.0215
 1319WAT    EPW 5352   0.881   0.848   2.590 -0.4450  0.8342  0.0844
 1320WAT      O 5353   0.621   2.220   1.106 -0.6279 -0.0641  0.1338
 1320WAT     H1 5354   0.532   2.198   1.131 -0.2912  0.4811  1.9468
 1320WAT     H2 5355   0.674   2.196   1.182  0.6806  0.2508 -0.6452
 1320WAT    EPW 5356   0.616   2.214   1.119 -0.4109  0.0494  0.2702
 1321WAT      O 5357   2.975   3.043   2.854  0.1403 -0.2202  0.7037
 1321WAT     H1 5358   2.940   3.109   2.794  3.3511 -0.4375 -1.6729
 1321WAT     H2 5359   3.027   3.092   2.917 -0.5273 -0.2615  1.3066
 1321WAT    EPW 5360   2.977   3.058   2.854  0.4757 -0.2543  0.4697
 1322WAT      O 5361   0.993   2.550   2.117  0.3391 -0.0884 -0.5704
 1322WAT     H1 5362   0.944   2.471   2.095 -0.6744 -0.6268  2.9866
 1322WAT     H2 5363   0.942   2.622   2.081 -0.6408 -0.8785 -0.7886
 1322WAT    EPW 5364   0.980   2.549   2.110  0.0762 -0.2636 -0.1300
 1323WAT      O 5365   1.467   0.537   2.701 -0.7269 -0.3565  0.2038
 1323WAT     H1 5366   1.447   0.468   2.639  1.4621 -1.2437  0.4047
 1323WAT     H2 5367   1.541   0.584   2.662 -1.1259  0.8518  0.8399
 1323WAT    EPW 5368   1.474   0.534   2.688 -0.4908 -0.3141  0.3142
 1324WAT      O 5369   2.462   0.216   1.538 -0.7028  0.1456 -0.1398
 1324WAT     H1 5370   2.550   0.179   1.550 -2.0114 -3.7452 -0.8912
 1324WAT     H2 5371   2.444   0.204   1.445 -3.2386 -2.6570  0.5436
 1324WAT    EPW 5372   2.471   0.209   1.527 -1.2099 -0.7372 -0.1488
 1325WAT      O 5373   0.493   4.000   2.828  0.0192 -0.4588  0.3549
 1325WAT     H1 5374   0.454   3.915   2.849 -2.7659  0.4310 -0.8074
 1325WAT     H2 5375   0.521   3.992   2.737  0.5641 -0.3670  0.5071
 1325WAT    EPW 5376   0.492   3.988   2.819 -0.2763 -0.3293  0.2217
 1326WAT      O 5377   2.898   1.487   0.357  0.0502  0.4948 -0.0254
 1326WAT     H1 5378   2.859   1.513   0.441  0.6499  1.5899 -0.0617
 1326WAT     H2 5379   2.849   1.536   0.291 -0.3704 -0.3083 -0.3178
 1326WAT    EPW 5380   2.886   1.497   0.360  0.0738  0.5333 -0.0688
 1327WAT      O 5381   2.726   0.072   3.744 -0.7673 -0.2350  0.2062
 1327WAT     H1 5382   2.815   0.100   3.761 -0.1992 -0.3198 -2.2426
 1327WAT     H2 5383   2.671   0.130   3.797  0.7083 -0.0047  1.5236
 1327WAT    EPW 5384   2.730   0.084   3.753 -0.4977 -0.2158  0.0570
 1328WAT      O 5385   0.384   0.519   2.445  0.3267 -0.0227 -0.3382
 1328WAT     H1 5386   0.382   0.434   2.401 -1.0823 -0.2541  0.1276
 1328WAT     H2 5387   0.322   0.573   2.396 -0.2385  0.1310  0.5295
 1328WAT    EPW 5388   0.376   0.515   2.433  0.0663 -0.0329 -0.1623
 1329WAT      O 5389   0.720   0.095   0.557  0.0250  0.1028 -0.5258
 1329WAT     H1 5390   0.751   0.006   0.542 -0.4165 -0.2692  0.6921
 1329WAT     H2 5391   0.629   0.084   0.586 -0.7682  1.0819 -2.4373
 1329WAT    EPW 5392   0.712   0.082   0.558 -0.1379  0.1829 -0.6172
 1330WAT      O 5393   3.048   2.081   0.111 -1.1745 -0.1319  0.2797
 1330WAT     H1 5394   2.987   2.083   0.185 -1.2410 -0.4603  0.2357
 1330WAT     H2 5395   3.118   2.141   0.136 -0.9269 -0.6519  0.8455
 1330WAT    EPW 5396   3.049   2.089   0.124 -1.1506 -0.2438  0.3485
 1331WAT      O 5397   3.131   4.004   1.912  0.2295 -0.0968  0.1063
 1331WAT     H1 5398   3.206   3.971   1.862  2.4876 -1.9911  4.1915
 1331WAT     H2 5399   3.078   3.927   1.930  1.0164 -0.1435  2.7353
 1331WAT    EPW 5400   3.134   3.990   1.908  0.6311 -0.3528  0.9919
 1332WAT      O 5401   0.081   1.769   3.193 -0.1249 -0.4003 -0.1116
 1332WAT     H1 5402   0.018   1.840   3.211  0.8822  0.7212 -0.8842
 1332WAT     H2 5403   0.063   1.704   3.261 -1.2217  0.4951  0.4929
 1332WAT    EPW 5404   0.070   1.770   3.205 -0.1368 -0.1343 -0.1338
 1333WAT      O 5405   2.402   3.783   1.802  0.0058 -0.1925 -0.1659
 1333WAT     H1 5406   2.387   3.816   1.713 -0.1820  0.9113  0.2598
 1333WAT     H2 5407   2.343   3.708   1.810 -0.2220 -0.0955 -0.8611
 1333WAT    EPW 5408   2.392   3.777   1.791 -0.0490 -0.0341 -0.2015
 1334WAT      O 5409   1.225   1.668   1.363 -0.1376  0.4523 -0.1123
 1334WAT     H1 5410   1.318   1.673   1.387 -0.4577  0.0213  1.2947
 1334WAT     H2 5411   1.199   1.579   1.386 -0.6482  0.1918 -1.5609
 1334WAT    EPW 5412   1.234   1.657   1.369 -0.2472  0.3611 -0.1178
 1335WAT      O 5413   1.186   1.661   0.829  0.4652 -0.4330  0.4922
 1335WAT     H1 5414   1.195   1.590   0.892  2.8697 -0.8979 -0.2862
 1335WAT     H2 5415   1.265   1.657   0.776 -0.5755  1.1549 -1.3322
 1335WAT    EPW 5416   1.197   1.651   0.830  0.6451 -0.2849  0.1489
 1336WAT      O 5417   0.825   4.305   2.212  0.1799  0.6557  0.3066
 1336WAT     H1 5418   0.891   4.315   2.281 -0.9766  2.9495  1.1772
 1336WAT     H2 5419   0.835   4.383   2.158 -0.1581 -0.2228 -1.0654
 1336WAT    EPW 5420   0.835   4.317   2.214 -0.0172  0.8423  0.2405
 1337WAT      O 5421   1.504   1.465   1.214 -0.0682  0.1001 -0.0156
 1337WAT     H1 5422   1.586   1.451   1.166  0.9138  0.5461  1.4371
 1337WAT     H2 5423   1.497   1.389   1.272 -1.2689 -0.4666 -0.8579
 1337WAT    EPW 5424   1.514   1.453   1.215 -0.0971  0.0842  0.0649
 1338WAT      O 5425   1.029   3.612   1.931  0.0986  0.4040 -0.1239
 1338WAT     H1 5426   1.017   3.650   1.844 -0.1703  0.3688 -0.1028
 1338WAT     H2 5427   1.036   3.517   1.915  0.0357  0.3964 -0.1046
 1338WAT    EPW 5428   1.028   3.604   1.917  0.0548  0.3983 -0.1185
 1339WAT      O 5429   1.297   4.195   1.599  0.0645  0.3070  0.4424
 1339WAT     H1 5430   1.253   4.279   1.585 -1.0235 -0.2504  0.3798
 1339WAT     H2 5431   1.334   4.202   1.687  1.4805  1.4750 -0.2145
 1339WAT    EPW 5432   1.296   4.207   1.609  0.1078  0.3875  0.3475
 1340WAT      O 5433   0.936   3.388   0.824 -0.1124  0.3527  0.1572
 1340WAT     H1 5434   0.959   3.401   0.732  1.2787 -0.1062  0.4163
 1340WAT     H2 5435   0.911   3.296   0.829 -1.9913  0.8150 -0.0951
 1340WAT    EPW 5436   0.936   3.377   0.812 -0.1768  0.3531  0.1581
 1341WAT      O 5437   2.363   1.535   2.183 -0.2086 -0.0850 -0.5894
 1341WAT     H1 5438   2.343   1.445   2.159  2.5942 -0.8078 -0.6078
 1341WAT     H2 5439   2.431   1.562   2.122  0.9708  1.0412  1.1156
 1341WAT    EPW 5440   2.370   1.527   2.172  0.3166 -0.0318 -0.3669
 1342WAT      O 5441   3.205   3.665   3.744  0.1640 -0.1729  0.0458
 1342WAT     H1 5442   3.258   3.718   3.804  0.7817 -0.7911  0.0524
 1342WAT     H2 5443   3.241   3.682   3.658  0.9008 -1.1838  0.1317
 1342WAT    EPW 5444   3.217   3.674   3.741  0.3427 -0.3878  0.0580
 1343WAT      O 5445   0.149   1.913   1.091 -0.0845 -0.4166 -0.1836
 1343WAT     H1 5446   0.169   1.899   1.184  0.5417  2.4017  0.1886
 1343WAT     H2 5447   0.053   1.918   1.088 -0.1388 -1.1501  0.1935
 1343WAT    EPW 5448   0.139   1.912   1.103 -0.0091 -0.1416 -0.0848
 1344WAT      O 5449   0.560   0.044   3.176  0.0471 -0.2257  0.1488
 1344WAT     H1 5450   0.512   0.083   3.103  1.7725  1.7945 -0.0163
 1344WAT     H2 5451   0.652   0.043   3.147  0.5216 -1.2547  1.5395
 1344WAT    EPW 5452   0.566   0.049   3.163  0.3373 -0.0950  0.3104
 1345WAT      O 5453   2.119   3.753   3.608 -0.7196 -0.0579  0.0532
 1345WAT     H1 5454   2.145   3.774   3.518  0.7650  1.9303  0.8656
 1345WAT     H2 5455   2.064   3.826   3.635  0.4953  0.4268  1.3783
 1345WAT    EPW 5456   2.115   3.765   3.600 -0.3636  0.2682  0.3351
 1346WAT      O 5457   1.581   0.816   0.739  0.2874 -0.1647  0.1082
 1346WAT     H1 5458   1.498   0.864   0.741  0.4949  0.1900  0.9143
 1346WAT     H2 5459   1.560   0.732   0.778  0.1287 -0.3904 -0.4535
 1346WAT    EPW 5460   1.567   0.812   0.745  0.2938 -0.1477  0.1404
 1347WAT      O 5461   1.758   2.466   0.447 -0.2622 -0.1264  0.0836
 1347WAT     H1 5462   1.738   2.549   0.402  1.3238  0.0949 -0.2619
 1347WAT     H2 5463   1.848   2.477   0.477  0.3042 -2.0766 -0.7845
 1347WAT    EPW 5464   1.767   2.479   0.445  0.0217 -0.3544 -0.0764
 1348WAT      O 5465   0.607   2.280   2.765  0.2929  0.1603 -0.2555
 1348WAT     H1 5466   0.677   2.281   2.700  0.2351 -2.2130 -0.4546
 1348WAT     H2 5467   0.632   2.211   2.826 -1.1086  0.3337  0.5618
 1348WAT    EPW 5468   0.619   2.271   2.764  0.1004 -0.1298 -0.1740
 1349WAT      O 5469   1.731   3.846   1.977  0.1451 -0.7277 -0.4231
 1349WAT     H1 5470   1.649   3.894   1.985  1.2848  1.4689 -1.2234
 1349WAT     H2 5471   1.747   3.839   1.883  1.0534 -0.8087 -0.2775
 1349WAT    EPW 5472   1.723   3.851   1.966  0.4152 -0.4487 -0.5094
 1350WAT      O 5473   0.318   1.705   3.383 -0.3247  0.1375 -0.3875
 1350WAT     H1 5474   0.268   1.743   3.310 -0.8012  1.0836  0.4072
 1350WAT     H2 5475   0.341   1.617   3.352 -0.5884  0.4827 -1.6403
 1350WAT    EPW 5476   0.314   1.698   3.369 -0.4224  0.3078 -0.4479
 1351WAT      O 5477   3.078   2.013   1.268  0.6433  0.0711 -0.0395
 1351WAT     H1 5478   3.017   1.940   1.278  0.3313  0.3049 -0.2237
 1351WAT     H2 5479   3.022   2.090   1.261  0.9872  0.4029  0.7377
 1351WAT    EPW 5480   3.063   2.014   1.269  0.6475  0.1457  0.0387
 1352WAT      O 5481   0.367   2.108   2.713  0.0925 -0.7294  0.3285
 1352WAT     H1 5482   0.378   2.094   2.619 -1.0566  0.3819  0.0090
 1352WAT     H2 5483   0.420   2.185   2.732 -0.5718 -0.2768  0.3640
 1352WAT    EPW 5484   0.375   2.116   2.703 -0.1467 -0.5231  0.2911
 1353WAT      O 5485   2.477   2.724   1.424  0.9485 -0.0830 -0.3844
 1353WAT     H1 5486   2.560   2.696   1.383  0.9353  1.1887 -1.3461
 1353WAT     H2 5487   2.503   2.791   1.486  0.6385  0.3809 -0.7526
 1353WAT    EPW 5488   2.492   2.729   1.427  0.9059  0.1459 -0.5598
 1354WAT      O 5489   1.706   2.531   3.539  0.3852  0.1718 -0.7549
 1354WAT     H1 5490   1.744   2.444   3.532 -0.2538 -0.1120 -0.7752
 1354WAT     H2 5491   1.777   2.586   3.573  0.7360 -0.3910 -0.5720
 1354WAT    EPW 5492   1.720   2.527   3.542  0.3472  0.0602 -0.7335
 1355WAT      O 5493   1.560   3.531   3.582  0.2301 -0.0867 -0.1623
 1355WAT     H1 5494   1.645   3.504   3.617  0.4632  1.0259  0.1640
 1355WAT     H2 5495   1.528   3.454   3.535  0.8678 -0.9129  0.7222
 1355WAT    EPW 5496   1.567   3.517   3.580  0.3449 -0.0489 -0.0026
 1356WAT      O 5497   1.836   2.642   2.067  0.2818 -1.0031 -0.1339
 1356WAT     H1 5498   1.908   2.583   2.047  1.7636  0.5522  0.3418
 1356WAT     H2 5499   1.759   2.586   2.075  1.3936 -2.6853 -0.8883
 1356WAT    EPW 5500   1.835   2.627   2.066  0.6239 -1.0198 -0.1706
 1357WAT      O 5501   2.245   1.744   0.924 -0.3300 -0.3210 -0.3875
 1357WAT     H1 5502   2.252   1.777   1.013 -1.6174 -0.6461 -0.1541
 1357WAT     H2 5503   2.270   1.818   0.869  0.7102 -0.1881  0.2298
 1357WAT    EPW 5504   2.249   1.758   0.928 -0.3626 -0.3463 -0.2753
 1358WAT      O 5505   0.197   0.492   2.663  0.3607  0.2298  0.4320
 1358WAT     H1 5506   0.115   0.540   2.651 -0.1167 -0.6054  0.3197
 1358WAT     H2 5507   0.247   0.510   2.584 -1.7020 -3.1339 -1.8925
 1358WAT    EPW 5508   0.193   0.501   2.651  0.0257 -0.3240  0.1106
 1359WAT      O 5509   1.001   3.743   1.674  0.2013 -0.5475 -0.7910
 1359WAT     H1 5510   0.969   3.820   1.627 -0.2884  0.1451  0.6191
 1359WAT     H2 5511   1.055   3.697   1.610  0.5641  0.9913 -1.6563
 1359WAT    EPW 5512   1.004   3.747   1.659  0.1846 -0.2532 -0.7192
 1360WAT      O 5513   0.580   2.735   3.548  0.0518  0.1083  0.3281
 1360WAT     H1 5514   0.594   2.643   3.524  1.0446  0.0565  1.0256
 1360WAT     H2 5515   0.667   2.774   3.543 -0.5661  1.3615 -1.2830
 1360WAT    EPW 5516   0.593   2.728   3.544  0.1013  0.2668  0.2076
 1361WAT      O 5517   0.369   4.252   2.855 -0.2399 -0.4631  0.2925
 1361WAT     H1 5518   0.423   4.179   2.885 -0.1906 -0.6350 -0.2005
 1361WAT     H2 5519   0.322   4.282   2.933 -0.1187 -0.9037  0.5338
 1361WAT    EPW 5520   0.370   4.246   2.869 -0.2174 -0.5439  0.2593
 1362WAT      O 5521   2.981   1.963   2.130 -0.2930  0.7321 -0.3019
 1362WAT     H1 5522   2.910   1.934   2.187 -0.3013 -1.3276 -1.2698
 1362WAT     H2 5523   2.942   1.967   2.043  0.4368  0.9421 -0.6269
 1362WAT    EPW 5524   2.967   1.960   2.126 -0.1978  0.4881 -0.4724
 1363WAT      O 5525   0.661   3.969   0.556  0.6384  0.1299  0.2002
 1363WAT     H1 5526   0.583   4.021   0.574  0.3127  0.1954 -1.2658
 1363WAT     H2 5527   0.671   3.914   0.633 -1.5941 -0.7750 -0.0787
 1363WAT    EPW 5528   0.652   3.969   0.569  0.3010  0.0192 -0.0299
 1364WAT      O 5529   2.073   2.415   0.568 -0.1607 -0.4262  0.2157
 1364WAT     H1 5530   2.043   2.505   0.553 -2.4012 -1.3284 -1.3181
 1364WAT     H2 5531   2.007   2.377   0.626  0.2451 -1.3534  0.0813
 1364WAT    EPW 5532   2.060   2.422   0.573 -0.4027 -0.6675 -0.0044
 1365WAT      O 5533   2.330   3.014   2.851 -0.4139 -0.4285 -0.1019
 1365WAT     H1 5534   2.418   3.016   2.813 -0.7918  3.2303 -1.0927
 1365WAT     H2 5535   2.339   3.059   2.935 -1.3039 -0.3493 -0.0449
 1365WAT    EPW 5536   2.343   3.020   2.857 -0.5811  0.0645 -0.2251
 1366WAT      O 5537   1.310   2.784   0.651 -0.0129  1.1097 -0.0540
 1366WAT     H1 5538   1.376   2.775   0.720  0.7397  0.1536 -0.8711
 1366WAT     H2 5539   1.231   2.745   0.689  0.1009  1.5498  0.6473
 1366WAT    EPW 5540   1.308   2.777   0.665  0.1014  1.0417 -0.0693
 1367WAT      O 5541   1.123   2.377   3.140 -0.4357  0.5368  0.0678
 1367WAT     H1 5542   1.207   2.353   3.102 -0.2154  0.7039  0.4435
 1367WAT     H2 5543   1.075   2.417   3.067  0.0372  0.9917 -0.0019
 1367WAT    EPW 5544   1.128   2.379   3.125 -0.3443  0.6188  0.1082
 1368WAT      O 5545   2.561   2.097   1.563  0.2915 -0.0725 -0.2944
 1368WAT     H1 5546   2.578   2.161   1.632 -1.2097 -0.9479  0.9466
 1368WAT     H2 5547   2.467   2.103   1.547  0.0913 -1.9645 -0.1033
 1368WAT    EPW 5548   2.551   2.106   1.570  0.0671 -0.4375 -0.1055
 1369WAT      O 5549   0.495   2.691   1.790 -0.2138  0.1755  0.0768
 1369WAT     H1 5550   0.510   2.745   1.868  0.8118  1.4768 -0.9711
 1369WAT     H2 5551   0.547   2.612   1.805 -0.8204 -0.0444  1.1329
 1369WAT    EPW 5552   0.504   2.688   1.802 -0.1585  0.3181  0.0779
 1370WAT      O 5553   1.651   1.848   3.255 -0.0447 -0.0516 -0.1199
 1370WAT     H1 5554   1.680   1.922   3.202  0.7183 -0.9700 -1.0068
 1370WAT     H2 5555   1.664   1.878   3.346  1.0849  0.5860 -0.4711
 1370WAT    EPW 5556   1.656   1.862   3.260  0.2049 -0.0887 -0.2832
 1371WAT      O 5557   0.890   4.258   0.323  0.7887  0.0493 -0.3487
 1371WAT     H1 5558   0.878   4.249   0.417  0.7309  0.3116 -0.3323
 1371WAT     H2 5559   0.911   4.169   0.294 -0.7800 -0.3705 -0.3229
 1371WAT    EPW 5560   0.891   4.245   0.332  0.5742  0.0285 -0.3431
 1372WAT      O 5561   3.640   2.742   3.150 -0.3124 -0.4947  0.2806
 1372WAT     H1 5562   3.701   2.806   3.187 -2.1532  2.8795 -1.9791
 1372WAT     H2 5563   3.653   2.749   3.055 -2.5780 -1.3247 -0.1571
 1372WAT    EPW 5564   3.650   2.752   3.142 -0.8540 -0.1591 -0.0752
 1373WAT      O 5565   0.798   2.760   1.979 -0.1641 -0.1053 -0.9960
 1373WAT     H1 5566   0.759   2.827   2.035 -1.2120  0.5260 -2.4308
 1373WAT     H2 5567   0.839   2.808   1.908  0.3255 -0.9285 -1.2897
 1373WAT    EPW 5568   0.798   2.775   1.977 -0.2378 -0.1306 -1.2240
 1374WAT      O 5569   0.726   3.955   2.366  0.0499  0.1108 -0.3616
 1374WAT     H1 5570   0.793   3.887   2.361 -0.2061 -0.0960 -1.0373
 1374WAT     H2 5571   0.691   3.961   2.277  0.8101  1.8731 -0.5822
 1374WAT    EPW 5572   0.730   3.947   2.354  0.1164  0.3159 -0.4798
 1375WAT      O 5573   3.390   2.536   2.995 -0.1987  0.1820  0.1386
 1375WAT     H1 5574   3.475   2.564   3.030 -0.2823  0.8416 -0.1624
 1375WAT     H2 5575   3.340   2.617   2.986 -0.8505 -0.1974  0.2778
 1375WAT    EPW 5576   3.395   2.551   2.998 -0.2956  0.2189  0.1173
 1376WAT      O 5577   1.754   0.182   0.178 -0.3505 -0.0913 -0.1012
 1376WAT     H1 5578   1.675   0.201   0.127 -0.0160 -1.2314 -1.0857
 1376WAT     H2 5579   1.820   0.242   0.143 -0.1196 -0.8729 -1.0589
 1376WAT    EPW 5580   1.752   0.193   0.166 -0.2759 -0.3448 -0.3573
 1377WAT      O 5581   2.276   0.184   0.544  0.1399  0.7831 -0.2310
 1377WAT     H1 5582   2.303   0.172   0.453  1.9042  1.2567  0.1862
 1377WAT     H2 5583   2.351   0.152   0.596 -1.0953 -0.1311  1.0789
 1377WAT    EPW 5584   2.290   0.178   0.539  0.2097  0.7250 -0.0032
 1378WAT      O 5585   3.079   0.482   2.941  0.0375 -0.1497 -0.2856
 1378WAT     H1 5586   3.096   0.393   2.969  0.4813  0.0181 -0.0225
 1378WAT     H2 5587   3.122   0.490   2.856 -0.3351 -0.3048 -0.4909
 1378WAT    EPW 5588   3.087   0.471   2.933  0.0469 -0.1480 -0.2780
 1379WAT      O 5589   0.011   3.265   3.788 -0.0538 -0.7241  0.0707
 1379WAT     H1 5590  -0.080   3.239   3.803 -0.8672  1.3569 -0.7941
 1379WAT     H2 5591   0.033   3.321   3.863  0.2411 -0.6171 -0.0942
 1379WAT    EPW 5592   0.002   3.269   3.800 -0.1222 -0.4355 -0.0651
 1380WAT      O 5593   3.144   4.302   0.030  0.0493  0.0785  0.2677
 1380WAT     H1 5594   3.214   4.364   0.011  2.7334 -3.1886 -1.6125
 1380WAT     H2 5595   3.150   4.288   0.125  0.8835  1.0044  0.3759
 1380WAT    EPW 5596   3.154   4.308   0.040  0.5133 -0.2303  0.0339
 1381WAT      O 5597   2.861   1.961   1.899  0.5010  0.2788  0.0946
 1381WAT     H1 5598   2.892   1.952   1.809  0.9038  0.3350  0.2273
 1381WAT     H2 5599   2.770   1.929   1.896  0.6857 -0.2293 -0.2197
 1381WAT    EPW 5600   2.853   1.956   1.887  0.5785  0.2192  0.0707
 1382WAT      O 5601   2.696   1.152   1.407  0.5527  0.5088 -0.2299
 1382WAT     H1 5602   2.724   1.170   1.317  1.2594 -0.1104 -0.1476
 1382WAT     H2 5603   2.668   1.061   1.405  2.8235 -0.2896  0.6655
 1382WAT    EPW 5604   2.696   1.142   1.395  0.9454  0.3218 -0.1009
 1383WAT      O 5605   2.296   3.153   2.268 -0.2859 -0.1142 -0.0404
 1383WAT     H1 5606   2.313   3.063   2.241  3.3219  0.6827 -0.9847
 1383WAT     H2 5607   2.235   3.186   2.202 -0.1583 -1.3303 -0.8059
 1383WAT    EPW 5608   2.290   3.146   2.256  0.2068 -0.1695 -0.2659
 1384WAT      O 5609   2.488   1.580   2.449 -0.3445  1.0339 -0.0144
 1384WAT     H1 5610   2.415   1.526   2.420 -0.3229  0.8324  0.2972
 1384WAT     H2 5611   2.552   1.574   2.379 -0.0872  0.1611  0.2759
 1384WAT    EPW 5612   2.486   1.572   2.436 -0.3077  0.8922  0.0650
 1385WAT      O 5613   1.414   0.237   2.062  0.7402  0.2640  0.1363
 1385WAT     H1 5614   1.429   0.266   1.972 -2.3362  0.3803 -0.4800
 1385WAT     H2 5615   1.416   0.318   2.113 -0.8873  0.7210 -0.4502
 1385WAT    EPW 5616   1.416   0.252   2.057  0.1198  0.3396 -0.0224
 1386WAT      O 5617   0.522   1.762   2.826 -0.7010  0.4411  0.9343
 1386WAT     H1 5618   0.589   1.694   2.820 -0.0689  0.8792  2.6258
 1386WAT     H2 5619   0.446   1.719   2.865 -1.2914  0.0598 -0.5579
 1386WAT    EPW 5620   0.521   1.748   2.830 -0.6955  0.4486  0.9605
 1387WAT      O 5621   1.786   0.567   0.985  0.0284 -0.6252 -0.3517
 1387WAT     H1 5622   1.834   0.530   0.911  0.1746  0.0167 -0.5873
 1387WAT     H2 5623   1.704   0.598   0.947  1.1647  2.1409 -0.8478
 1387WAT    EPW 5624   1.782   0.566   0.970  0.1975 -0.1757 -0.4482
 1388WAT      O 5625   3.608   0.065   0.360  0.6758 -0.4703 -0.0319
 1388WAT     H1 5626   3.685   0.076   0.416  0.9716 -1.1651 -0.2826
 1388WAT     H2 5627   3.633  -0.004   0.299  0.3492  0.2622 -1.0112
 1388WAT    EPW 5628   3.621   0.057   0.360  0.6717 -0.4653 -0.1941
 1389WAT      O 5629   1.617   4.243   0.695  0.2966 -0.2748 -0.6450
 1389WAT     H1 5630   1.658   4.317   0.741 -1.8699  1.3762 -1.1631
 1389WAT     H2 5631   1.664   4.166   0.726  1.1994  1.1047  1.6619
 1389WAT    EPW 5632   1.629   4.243   0.705  0.1300  0.1249 -0.4091
 1390WAT      O 5633   2.929   0.238   2.789 -0.1435 -0.1182 -0.3254
 1390WAT     H1 5634   2.864   0.230   2.719 -0.4389 -0.0799 -0.0535
 1390WAT     H2 5635   2.949   0.148   2.814  0.8917 -0.1869 -1.3147
 1390WAT    EPW 5636   2.923   0.225   2.783 -0.0460 -0.1222 -0.4200
 1391WAT      O 5637   0.657   2.803   3.077  0.1928 -0.1253  0.3916
 1391WAT     H1 5638   0.617   2.734   3.024  0.2558  0.8297 -0.9294
 1391WAT     H2 5639   0.751   2.785   3.072  0.1196 -0.8992  1.4337
 1391WAT    EPW 5640   0.664   2.791   3.069  0.1915 -0.1014  0.3548
 1392WAT      O 5641   1.421   0.152   0.084 -0.2348  0.7028 -0.0150
 1392WAT     H1 5642   1.331   0.120   0.092 -1.0490  2.2083 -2.1479
 1392WAT     H2 5643   1.476   0.076   0.107 -2.0301 -0.6105  0.1409
 1392WAT    EPW 5644   1.417   0.138   0.088 -0.5790  0.7281 -0.2758
 1393WAT      O 5645   2.782   3.666   0.734 -0.5174  0.3644  0.7170
 1393WAT     H1 5646   2.702   3.632   0.695  1.4951  0.3130 -3.9357
 1393WAT     H2 5647   2.848   3.599   0.717  1.1830  1.7574  1.5338
 1393WAT    EPW 5648   2.780   3.653   0.727 -0.0277  0.5414  0.2111
 1394WAT      O 5649   1.245   0.658   1.338 -0.0749 -0.3417 -0.0193
 1394WAT     H1 5650   1.170   0.603   1.362  0.3410 -1.3279 -0.8837
 1394WAT     H2 5651   1.209   0.720   1.274  0.0884 -1.6503 -1.4217
 1394WAT    EPW 5652   1.230   0.659   1.333  0.0015 -0.6444 -0.3183
 1395WAT      O 5653   0.335   2.113   3.472 -0.3447  0.5451  0.6217
 1395WAT     H1 5654   0.316   2.200   3.437 -1.6261 -0.1349 -0.4809
 1395WAT     H2 5655   0.421   2.122   3.513 -0.3393  2.2614  0.3157
 1395WAT    EPW 5656   0.344   2.126   3.472 -0.5130  0.6818  0.4359
 1396WAT      O 5657   0.972   2.214   0.461 -0.0592  0.2140  0.0142
 1396WAT     H1 5658   0.907   2.176   0.401 -0.3508 -1.3692  1.2567
 1396WAT     H2 5659   0.966   2.160   0.540  0.7464  1.8405  1.2522
 1396WAT    EPW 5660   0.962   2.202   0.463  0.0086  0.2197  0.3414
 1397WAT      O 5661   0.154   0.098   1.272 -0.0551  0.5616 -0.1758
 1397WAT     H1 5662   0.235   0.083   1.320 -1.2493 -2.9390  1.0209
 1397WAT     H2 5663   0.160   0.042   1.195 -0.9216  1.0379 -0.6100
 1397WAT    EPW 5664   0.165   0.089   1.268 -0.3269  0.1627 -0.0752
 1398WAT      O 5665   2.797   2.400   2.864 -0.1427  0.4753  0.7376
 1398WAT     H1 5666   2.847   2.318   2.857 -0.1781  0.4347  0.9507
 1398WAT     H2 5667   2.784   2.411   2.958 -0.7112  0.3818  0.6702
 1398WAT    EPW 5668   2.802   2.390   2.875 -0.2223  0.4576  0.7568
 1399WAT      O 5669   3.210   1.351   3.729  0.5028 -0.2260 -0.5863
 1399WAT     H1 5670   3.271   1.399   3.785  1.5872 -0.9339 -1.1330
 1399WAT     H2 5671   3.203   1.265   3.769  1.7049 -0.9177 -1.7852
 1399WAT    EPW 5672   3.217   1.346   3.741  0.8044 -0.4106 -0.8166
 1400WAT      O 5673   0.585   3.968   2.120 -0.7210 -0.5758 -0.0665
 1400WAT     H1 5674   0.513   4.028   2.103  0.1451  0.3812 -0.4859
 1400WAT     H2 5675   0.573   3.898   2.057  0.2568  0.9863 -2.1050
 1400WAT    EPW 5676   0.574   3.967   2.110 -0.4778 -0.2436 -0.3907
 1401WAT      O 5677   2.084   2.742   2.459 -0.0889  0.4702 -0.1114
 1401WAT     H1 5678   2.064   2.836   2.463  0.1145  0.5435 -0.7289
 1401WAT     H2 5679   2.001   2.701   2.433 -0.5143  0.3377  1.3655
 1401WAT    EPW 5680   2.070   2.749   2.456 -0.1182  0.4624  0.0019
 1402WAT      O 5681   3.041   0.630   2.070 -0.4418  0.6199  0.3523
 1402WAT     H1 5682   3.136   0.629   2.068 -0.4346  1.0622 -1.4191
 1402WAT     H2 5683   3.016   0.538   2.084  0.2565  0.0664 -1.7505
 1402WAT    EPW 5684   3.050   0.618   2.072 -0.3487  0.6053 -0.1587
 1403WAT      O 5685   0.126   2.561   1.639  0.1640  0.5316  0.0531
 1403WAT     H1 5686   0.207   2.601   1.608  0.5167 -0.1572  0.0753
 1403WAT     H2 5687   0.059   2.628   1.624  0.2479  0.1535 -2.5073
 1403WAT    EPW 5688   0.128   2.575   1.633  0.2216  0.3909 -0.2817
 1404WAT      O 5689   0.771   1.945   3.192 -0.0347 -0.3736 -0.2864
 1404WAT     H1 5690   0.728   1.880   3.248 -0.7256  1.2660  1.1980
 1404WAT     H2 5691   0.782   2.021   3.249  0.9944  0.7223 -1.8833
 1404WAT    EPW 5692   0.767   1.946   3.207  0.0099 -0.0128 -0.3013
 1405WAT      O 5693   3.588   3.892   1.552 -0.4693 -0.0206  0.1524
 1405WAT     H1 5694   3.586   3.986   1.569 -0.0725  0.2148 -1.0227
 1405WAT     H2 5695   3.497   3.864   1.562 -0.9122  0.8358 -1.3103
 1405WAT    EPW 5696   3.576   3.901   1.556 -0.4754  0.1234 -0.1955
 1406WAT      O 5697   0.705   1.778   2.225 -0.3882 -0.0465  0.1339
 1406WAT     H1 5698   0.652   1.705   2.256  1.1549 -0.8657  0.9968
 1406WAT     H2 5699   0.702   1.842   2.296 -0.0406 -0.2020  0.2918
 1406WAT    EPW 5700   0.698   1.777   2.239 -0.1388 -0.1750  0.2686
 1407WAT      O 5701   0.336   2.031   0.789 -0.1721  0.6018 -0.0403
 1407WAT     H1 5702   0.250   1.988   0.788  0.0023  0.1281  1.8439
 1407WAT     H2 5703   0.344   2.070   0.702 -2.4833  1.0391 -0.1167
 1407WAT    EPW 5704   0.326   2.031   0.777 -0.4539  0.5970  0.1982
 1408WAT      O 5705   3.100   1.891   0.583  0.4180 -0.0615  0.6968
 1408WAT     H1 5706   3.028   1.936   0.626  1.5610  1.3284  1.2202
 1408WAT     H2 5707   3.097   1.801   0.617 -0.3864  0.2801  1.5414
 1408WAT    EPW 5708   3.090   1.885   0.593  0.4626  0.1669  0.8772
 1409WAT      O 5709   1.638   2.219   0.127 -0.3830 -0.2328 -0.1465
 1409WAT     H1 5710   1.642   2.124   0.125  1.6504 -0.1687 -1.1272
 1409WAT     H2 5711   1.601   2.244   0.042 -0.0649 -0.1232 -0.2533
 1409WAT    EPW 5712   1.634   2.210   0.116 -0.0729 -0.2099 -0.2899
 1410WAT      O 5713   3.277   1.444   2.499 -0.2854 -0.1385  0.9379
 1410WAT     H1 5714   3.299   1.475   2.411 -0.0394 -1.0376  0.6708
 1410WAT     H2 5715   3.204   1.383   2.485  1.1353 -1.9415  1.0870
 1410WAT    EPW 5716   3.270   1.440   2.485 -0.0656 -0.4949  0.9224
 1411WAT      O 5717   0.396   1.720   0.507 -0.0983  0.3225 -0.0275
 1411WAT     H1 5718   0.488   1.732   0.530 -0.6238  0.1639  2.4344
 1411WAT     H2 5719   0.362   1.809   0.497 -0.4475  0.6037  2.7823
 1411WAT    EPW 5720   0.403   1.733   0.509 -0.2137  0.3386  0.6678
 1412WAT      O 5721   0.220   2.160   3.059  0.0157  0.2315 -0.2267
 1412WAT     H1 5722   0.206   2.224   3.129  0.2898 -0.3354  0.3506
 1412WAT     H2 5723   0.288   2.101   3.093 -0.4293 -0.5311 -0.6358
 1412WAT    EPW 5724   0.227   2.161   3.073 -0.0069  0.0561 -0.2045
 1413WAT      O 5725   0.798   4.224   2.812  0.0387  0.0195  0.1443
 1413WAT     H1 5726   0.886   4.203   2.841  0.7271 -0.1947 -1.9077
 1413WAT     H2 5727   0.750   4.142   2.820  0.7804 -0.5792 -1.1688
 1413WAT    EPW 5728   0.803   4.211   2.817  0.2274 -0.0877 -0.2995
 1414WAT      O 5729   1.285   2.106   0.484  0.4544 -0.0122  0.3622
 1414WAT     H1 5730   1.236   2.170   0.535 -0.1489 -1.3565  1.5300
 1414WAT     H2 5731   1.344   2.158   0.430 -1.2051  1.5970  0.0078
 1414WAT    EPW 5732   1.286   2.121   0.484  0.1559  0.0227  0.4695
 1415WAT      O 5733   2.903   1.058   2.775 -0.2620  0.4301  0.0791
 1415WAT     H1 5734   2.818   1.037   2.737  0.0976  1.4666 -1.4112
 1415WAT     H2 5735   2.955   0.979   2.762 -0.3627  0.5226 -1.0229
 1415WAT    EPW 5736   2.899   1.045   2.768 -0.2279  0.5790 -0.2628
 1416WAT      O 5737   3.664   4.204   2.839 -0.8651 -0.5703  0.0657
 1416WAT     H1 5738   3.585   4.184   2.788 -0.2076 -0.3395 -1.0675
 1416WAT     H2 5739   3.657   4.298   2.856 -1.4677 -0.7810  1.1057
 1416WAT    EPW 5740   3.652   4.214   2.835 -0.8578 -0.5676  0.0534
 1417WAT      O 5741   1.574   1.970   0.494 -0.3361  0.4278 -0.5017
 1417WAT     H1 5742   1.586   1.985   0.401  1.2499 -1.4159 -0.6667
 1417WAT     H2 5743   1.663   1.955   0.528 -1.0638 -1.4035  0.7930
 1417WAT    EPW 5744   1.588   1.970   0.486 -0.2229 -0.0569 -0.3527
 1418WAT      O 5745   2.239   2.462   3.387 -0.0469 -0.1673  0.0632
 1418WAT     H1 5746   2.212   2.451   3.478 -1.2853  0.4663 -0.2121
 1418WAT     H2 5747   2.309   2.527   3.390  0.4706 -0.7386  0.6363
 1418WAT    EPW 5748   2.244   2.469   3.399 -0.1420 -0.1591  0.1025
 1419WAT      O 5749   1.661   2.876   2.272 -0.6158  0.3928  0.1578
 1419WAT     H1 5750   1.698   2.895   2.359  0.2265 -0.7797  0.0747
 1419WAT     H2 5751   1.734   2.892   2.211 -0.2623 -1.7078 -0.0298
 1419WAT    EPW 5752   1.676   2.881   2.276 -0.4581 -0.0389  0.1221
 1420WAT      O 5753   2.341   0.540   0.366  0.2551  0.2660  0.4254
 1420WAT     H1 5754   2.370   0.621   0.325  2.5713 -0.7567 -0.1004
 1420WAT     H2 5755   2.283   0.499   0.301  0.0985  0.8717  0.1784
 1420WAT    EPW 5756   2.337   0.545   0.352  0.5399  0.2110  0.3235
 1421WAT      O 5757   1.679   3.124   1.856 -0.1846  0.3774 -0.2155
 1421WAT     H1 5758   1.609   3.164   1.803 -0.3451  0.3955  0.0070
 1421WAT     H2 5759   1.686   3.035   1.823  0.0532  0.5368 -0.5963
 1421WAT    EPW 5760   1.670   3.118   1.845 -0.1744  0.4008 -0.2364
 1422WAT      O 5761   2.514   2.124   2.584 -0.4033  0.0536 -0.1355
 1422WAT     H1 5762   2.477   2.044   2.548  0.9937  0.4016 -2.5354
 1422WAT     H2 5763   2.577   2.094   2.650 -0.4911 -0.7845 -0.4217
 1422WAT    EPW 5764   2.517   2.110   2.588 -0.2306 -0.0110 -0.4898
 1423WAT      O 5765   2.007   3.403   2.857 -0.1737 -0.0729  0.8075
 1423WAT     H1 5766   1.968   3.386   2.943 -0.8341  0.8859  0.7155
 1423WAT     H2 5767   2.094   3.438   2.876  0.1921 -1.0685  1.0437
 1423WAT    EPW 5768   2.013   3.405   2.871 -0.2125 -0.0777  0.8265
 1424WAT      O 5769   2.768   2.254   3.412  0.1341  0.0867  0.5085
 1424WAT     H1 5770   2.752   2.333   3.463 -0.4475  0.4721 -0.2388
 1424WAT     H2 5771   2.762   2.182   3.475 -2.4892  0.3781  0.7173
 1424WAT    EPW 5772   2.765   2.255   3.427 -0.2886  0.1760  0.4375
 1425WAT      O 5773   2.977   4.325   2.119  0.1539  0.0277 -0.0625
 1425WAT     H1 5774   3.062   4.358   2.090 -0.3441  0.2267 -1.3160
 1425WAT     H2 5775   2.934   4.401   2.158 -0.5375  0.6313 -1.9236
 1425WAT    EPW 5776   2.983   4.339   2.121 -0.0030  0.1336 -0.4733
 1426WAT      O 5777   2.677   0.448   3.287 -0.0141  0.1973  0.5401
 1426WAT     H1 5778   2.684   0.371   3.343 -0.3028 -0.0620  0.2249
 1426WAT     H2 5779   2.762   0.456   3.246  0.0053  0.0280  0.5486
 1426WAT    EPW 5780   2.689   0.439   3.289 -0.0496  0.1408  0.4997
 1427WAT      O 5781   1.295   3.810   0.518 -0.8805 -0.4770 -0.2900
 1427WAT     H1 5782   1.321   3.838   0.605 -2.0645 -0.7277  0.1574
 1427WAT     H2 5783   1.323   3.719   0.511 -1.0736 -0.5546 -0.0469
 1427WAT    EPW 5784   1.302   3.802   0.528 -1.0621 -0.5203 -0.1989
 1428WAT      O 5785   1.025   1.435   0.951 -0.0507  0.4955 -0.4199
 1428WAT     H1 5786   1.067   1.433   1.037  1.0317 -2.2969 -0.9102
 1428WAT     H2 5787   0.951   1.494   0.962 -0.5449 -0.5182  2.7247
 1428WAT    EPW 5788   1.021   1.442   0.964  0.0269 -0.0065 -0.0698
 1429WAT      O 5789   3.663   0.792   1.159  0.0666 -0.3718  0.3324
 1429WAT     H1 5790   3.729   0.723   1.155  0.3928 -0.3725  3.4642
 1429WAT     H2 5791   3.587   0.752   1.201 -0.0935  0.8727  1.3180
 1429WAT    EPW 5792   3.662   0.778   1.164  0.0885 -0.2078  0.8755
 1430WAT      O 5793   0.953   1.968   1.561 -0.3363  0.0563  0.1370
 1430WAT     H1 5794   0.995   1.984   1.476  0.2959 -0.7235  0.2830
 1430WAT     H2 5795   0.875   1.917   1.540  2.1263 -4.2966  0.2215
 1430WAT    EPW 5796   0.948   1.963   1.547  0.0719 -0.6207  0.1674
 1431WAT      O 5797   3.639   2.192   3.060  0.9980 -0.1905 -0.1382
 1431WAT     H1 5798   3.722   2.197   3.013 -0.2576 -0.2649 -2.5042
 1431WAT     H2 5799   3.613   2.284   3.073  1.4133 -0.1678  0.5787
 1431WAT    EPW 5800   3.646   2.205   3.056  0.8871 -0.1973 -0.3557
 1432WAT      O 5801   0.171   0.417   2.085  0.0700 -0.3817  0.1042
 1432WAT     H1 5802   0.199   0.377   2.168 -1.0688 -0.7207  0.3477
 1432WAT     H2 5803   0.144   0.506   2.109  0.5249 -0.1996 -0.0530
 1432WAT    EPW 5804   0.171   0.423   2.099 -0.0202 -0.4024  0.1156
 1433WAT      O 5805   1.834   2.528   2.431  0.4689 -0.1491  0.5610
 1433WAT     H1 5806   1.891   2.487   2.366  0.5152 -0.8544  1.0405
 1433WAT     H2 5807   1.752   2.544   2.384  0.6041 -0.3733  0.2440
 1433WAT    EPW 5808   1.830   2.525   2.416  0.4929 -0.2717  0.5824
 1434WAT      O 5809   3.376   2.426   1.351 -0.4682 -0.2431 -0.3804
 1434WAT     H1 5810   3.374   2.434   1.446  2.0421  0.9928 -0.3320
 1434WAT     H2 5811   3.288   2.451   1.322 -1.0363  0.1362  1.5548
 1434WAT    EPW 5812   3.364   2.430   1.360 -0.2121 -0.0300 -0.1188
 1435WAT      O 5813   3.226   0.314   3.693 -0.4932 -0.4702  0.3924
 1435WAT     H1 5814   3.286   0.385   3.713 -0.4677 -0.0448 -1.0563
 1435WAT     H2 5815   3.255   0.282   3.607 -1.6707 -0.9598  0.1594
 1435WAT    EPW 5816   3.238   0.319   3.684 -0.6451 -0.4787  0.1706
 1436WAT      O 5817   1.400   3.730   2.216 -0.6580 -0.0817  0.0903
 1436WAT     H1 5818   1.307   3.709   2.213 -0.9254  0.6768  1.7424
 1436WAT     H2 5819   1.405   3.812   2.264  0.8908 -0.2660  0.3152
 1436WAT    EPW 5820   1.389   3.738   2.222 -0.4890 -0.0060  0.3379
 1437WAT      O 5821   1.861   2.232   2.589  0.2284 -0.1431  0.1019
 1437WAT     H1 5822   1.880   2.210   2.680 -0.4171  1.0570  0.5577
 1437WAT     H2 5823   1.884   2.325   2.581  1.6073 -0.5746 -1.3583
 1437WAT    EPW 5824   1.866   2.242   2.600  0.3252 -0.0417 -0.0306
 1438WAT      O 5825   2.554   1.812   1.265 -0.1054  0.0951  0.5222
 1438WAT     H1 5826   2.589   1.738   1.215  0.7320 -0.1815  1.4702
 1438WAT     H2 5827   2.595   1.803   1.351  0.2901  1.8822  0.5464
 1438WAT    EPW 5828   2.564   1.801   1.270  0.0572  0.2943  0.6505
 1439WAT      O 5829   2.519   2.744   2.920 -0.4241  0.2563  0.4924
 1439WAT     H1 5830   2.543   2.657   2.889 -0.3373 -0.3297  2.1192
 1439WAT     H2 5831   2.430   2.757   2.888 -0.7346 -0.7760  0.8953
 1439WAT    EPW 5832   2.510   2.735   2.911 -0.4536  0.0429  0.7601
 1440WAT      O 5833   0.672   3.487   1.810  0.1324  0.0667 -0.3052
 1440WAT     H1 5834   0.694   3.417   1.749  1.4531  0.4212 -0.2564
 1440WAT     H2 5835   0.687   3.567   1.760  0.8024  0.3484  0.3330
 1440WAT    EPW 5836   0.677   3.488   1.795  0.3949  0.1506 -0.2146
 1441WAT      O 5837   3.143   3.492   2.246 -0.1019  0.2349 -0.0664
 1441WAT     H1 5838   3.098   3.409   2.227 -0.6925  0.4897  0.1707
 1441WAT     H2 5839   3.103   3.555   2.186  0.8498  0.2112 -0.7493
 1441WAT    EPW 5840   3.131   3.489   2.236 -0.0543  0.2654 -0.1252
 1442WAT      O 5841   1.736   2.245   2.288  0.1145 -0.2504 -0.1435
 1442WAT     H1 5842   1.781   2.256   2.372  1.7050 -0.3154 -0.9576
 1442WAT     H2 5843   1.644   2.234   2.312  0.2765  1.4571  1.4874
 1442WAT    EPW 5844   1.730   2.245   2.302  0.3457 -0.0337 -0.0358
 1443WAT      O 5845   2.741   3.679   1.560  0.0085  0.5202 -0.2479
 1443WAT     H1 5846   2.726   3.728   1.641 -2.1363  1.7719 -1.3219
 1443WAT     H2 5847   2.659   3.632   1.545  0.8322 -0.7224 -1.0642
 1443WAT    EPW 5848   2.728   3.679   1.569 -0.1658  0.5214 -0.4972
 1444WAT      O 5849   2.251   0.030   1.462  0.2064 -0.2239  0.4656
 1444WAT     H1 5850   2.176   0.063   1.412  1.2223 -0.8861 -1.5814
 1444WAT     H2 5851   2.305   0.107   1.477 -1.2244  0.4314  2.7235
 1444WAT    EPW 5852   2.248   0.045   1.457  0.1517 -0.2248  0.4934
 1445WAT      O 5853   2.695   0.951   2.602  0.1292  0.5711  0.1913
 1445WAT     H1 5854   2.632   0.961   2.674  1.4657  1.9457  1.2310
 1445WAT     H2 5855   2.646   0.977   2.524 -0.6170  1.5646  0.9629
 1445WAT    EPW 5856   2.680   0.956   2.601  0.2071  0.8834  0.4302
 1446WAT      O 5857   2.385   2.730   3.478  0.0510  0.0180  0.0924
 1446WAT     H1 5858   2.319   2.793   3.449  1.1037  1.1476  0.0968
 1446WAT     H2 5859   2.458   2.742   3.418  0.6566 -0.4943  0.7103
 1446WAT    EPW 5860   2.386   2.740   3.466  0.2697  0.0994  0.1744
 1447WAT      O 5861   1.553   3.904   3.138 -0.1657  0.5752  0.3493
 1447WAT     H1 5862   1.590   3.951   3.063  0.2118  0.4541  0.4560
 1447WAT     H2 5863   1.483   3.851   3.101 -1.2610  1.9499  0.3689
 1447WAT    EPW 5864   1.548   3.904   3.123 -0.2604  0.7406  0.3659
 1448WAT      O 5865   3.055   3.073   0.080  0.0293 -0.4570 -0.3393
 1448WAT     H1 5866   3.012   2.990   0.056 -2.8917  0.0583  2.3490
 1448WAT     H2 5867   3.125   3.047   0.139  0.0262 -1.0875 -0.6021
 1448WAT    EPW 5868   3.058   3.058   0.084 -0.3564 -0.4722 -0.0194
 1449WAT      O 5869   0.483   3.148   3.334 -0.3948 -0.3259 -0.0134
 1449WAT     H1 5870   0.443   3.145   3.421 -2.6516  0.9503 -0.9170
 1449WAT     H2 5871   0.489   3.242   3.314  0.9566 -0.5729 -0.8764
 1449WAT    EPW 5872   0.478   3.160   3.343 -0.5142 -0.1902 -0.2464
 1450WAT      O 5873   2.864   2.011   0.699 -0.1823  0.4857 -0.2795
 1450WAT     H1 5874   2.788   2.051   0.657 -1.4278 -0.8568  0.6016
 1450WAT     H2 5875   2.847   2.019   0.793 -0.1589 -1.4185 -0.0633
 1450WAT    EPW 5876   2.852   2.017   0.706 -0.3435  0.0575 -0.1348
 1451WAT      O 5877   0.496   0.257   3.348  0.5951 -0.4485 -0.2696
 1451WAT     H1 5878   0.528   0.191   3.286 -0.0274 -1.4651  0.4622
 1451WAT     H2 5879   0.403   0.239   3.355  0.4413  0.4493  0.0333
 1451WAT    EPW 5880   0.488   0.246   3.340  0.4927 -0.4642 -0.1331
 1452WAT      O 5881   1.864   1.827   3.813 -0.0151  0.3479  0.0924
 1452WAT     H1 5882   1.917   1.881   3.871 -1.0378  0.9148  0.5264
 1452WAT     H2 5883   1.794   1.886   3.782 -0.8181 -0.5611  0.1216
 1452WAT    EPW 5884   1.862   1.842   3.816 -0.2559  0.3028  0.1535
 1453WAT      O 5885   0.620   4.158   1.686 -0.5163  0.0209 -0.0672
 1453WAT     H1 5886   0.690   4.093   1.684  0.3194  0.8997 -1.5390
 1453WAT     H2 5887   0.599   4.168   1.778  1.5097 -0.0700  0.4546
 1453WAT    EPW 5888   0.627   4.151   1.698 -0.1389  0.1248 -0.1925
 1454WAT      O 5889   2.501   1.626   1.967 -0.2829 -0.5669  0.0991
 1454WAT     H1 5890   2.583   1.601   1.925  0.0350 -1.1060  1.0191
 1454WAT     H2 5891   2.435   1.611   1.900  0.4633  0.9527 -1.0450
 1454WAT    EPW 5892   2.503   1.621   1.953 -0.1426 -0.4375  0.0695
 1455WAT      O 5893   1.508   3.348   1.400 -0.1400  0.4977 -0.2901
 1455WAT     H1 5894   1.527   3.397   1.480  0.5055  0.0859 -0.1916
 1455WAT     H2 5895   1.487   3.416   1.335  2.0192  1.0044 -0.5082
 1455WAT    EPW 5896   1.507   3.364   1.402  0.2299  0.5102 -0.3059
 1456WAT      O 5897   0.693   3.850   3.703 -0.0197 -0.5685 -0.0754
 1456WAT     H1 5898   0.687   3.867   3.609  0.5581  0.5694  0.0670
 1456WAT     H2 5899   0.769   3.793   3.713 -0.3462 -1.0493 -0.3382
 1456WAT    EPW 5900   0.703   3.845   3.692  0.0135 -0.4819 -0.0913
 1457WAT      O 5901   0.172   4.000   2.400 -0.3831 -0.1397 -0.2961
 1457WAT     H1 5902   0.159   4.048   2.482  0.7011 -0.8522  0.3193
 1457WAT     H2 5903   0.223   4.060   2.345 -0.3955  0.0238 -0.1317
 1457WAT    EPW 5904   0.177   4.014   2.404 -0.2417 -0.2121 -0.1932
 1458WAT      O 5905   1.938   1.927   2.748  0.2642 -0.2265 -0.5013
 1458WAT     H1 5906   1.886   1.892   2.675 -1.2517  0.5815  0.1364
 1458WAT     H2 5907   2.016   1.872   2.751 -0.9105 -2.0058 -1.0326
 1458WAT    EPW 5908   1.941   1.915   2.739 -0.0907 -0.3546 -0.4873
 1459WAT      O 5909   2.583   0.486   3.684 -0.3399  0.1167  0.5033
 1459WAT     H1 5910   2.488   0.469   3.683 -0.2214 -0.9108  2.2460
 1459WAT     H2 5911   2.620   0.418   3.627 -0.5807 -0.1765  0.6887
 1459WAT    EPW 5912   2.575   0.474   3.676 -0.3560 -0.0575  0.7576
 1460WAT      O 5913   2.677   4.143   3.152  0.0878 -0.4205  0.1072
 1460WAT     H1 5914   2.687   4.132   3.246  3.5964  2.3313  0.2901
 1460WAT     H2 5915   2.590   4.181   3.141  0.5916  1.8466  2.6845
 1460WAT    EPW 5916   2.667   4.147   3.163  0.6170  0.2415  0.4712
 1461WAT      O 5917   0.430   4.268   3.345 -0.0257 -0.6309 -0.1466
 1461WAT     H1 5918   0.368   4.221   3.289 -0.5037 -0.5674  0.3236
 1461WAT     H2 5919   0.484   4.319   3.284 -1.1975  0.2370 -0.5026
 1461WAT    EPW 5920   0.429   4.269   3.329 -0.2433 -0.5080 -0.1315
 1462WAT      O 5921   2.650   3.348   2.447 -0.2685 -0.0660 -0.5786
 1462WAT     H1 5922   2.581   3.297   2.491  0.4479 -0.5477  0.0232
 1462WAT     H2 5923   2.603   3.404   2.385 -1.2248 -0.1472  0.0491
 1462WAT    EPW 5924   2.635   3.348   2.445 -0.3001 -0.1403 -0.4164
 1463WAT      O 5925   3.066   0.122   0.408 -0.3044 -0.1794  0.3298
 1463WAT     H1 5926   3.125   0.182   0.454 -0.2412  0.0208 -0.0105
 1463WAT     H2 5927   3.022   0.177   0.343  1.6484 -0.9579 -1.7975
 1463WAT    EPW 5928   3.068   0.138   0.406 -0.0385 -0.2557  0.0043
 1464WAT      O 5929   2.008   3.203   1.359 -0.2871  0.3694  0.0270
 1464WAT     H1 5930   1.927   3.190   1.309  0.2711 -0.4846 -0.6927
 1464WAT     H2 5931   2.038   3.115   1.379 -0.3158  0.6903  1.6395
 1464WAT    EPW 5932   2.001   3.190   1.355 -0.2172  0.2991  0.1448
 1465WAT      O 5933   1.106   2.953   0.431 -0.3085  0.1784  0.3553
 1465WAT     H1 5934   1.083   2.861   0.418 -0.7930  0.0309  2.0538
 1465WAT     H2 5935   1.109   2.990   0.343  1.3355 -1.7902 -0.4787
 1465WAT    EPW 5936   1.103   2.946   0.418 -0.1555 -0.1007  0.4693
 1466WAT      O 5937   3.276   0.063   3.283  0.0059  0.1361  0.3364
 1466WAT     H1 5938   3.311  -0.026   3.287 -1.9616 -0.6584  1.2291
 1466WAT     H2 5939   3.315   0.108   3.357 -0.1426 -0.4483  0.7720
 1466WAT    EPW 5940   3.286   0.057   3.293 -0.2732 -0.0458  0.5116
 1467WAT      O 5941   1.740   3.566   1.878  0.6912 -0.0040  0.1079
 1467WAT     H1 5942   1.671   3.611   1.928  1.6632  2.2859 -0.5100
 1467WAT     H2 5943   1.756   3.486   1.928 -1.4523  0.0514  1.0035
 1467WAT    EPW 5944   1.733   3.561   1.892  0.5367  0.3053  0.1446
 1468WAT      O 5945   0.204   3.642   1.744 -0.5364 -0.2564  0.1338
 1468WAT     H1 5946   0.118   3.653   1.786 -0.8788 -1.2016 -0.2873
 1468WAT     H2 5947   0.188   3.657   1.651 -0.2829 -0.6170  0.0294
 1468WAT    EPW 5948   0.190   3.646   1.737 -0.5481 -0.4286  0.0645
 1469WAT      O 5949   0.155   0.283   3.077 -0.0588 -0.4017  0.0689
 1469WAT     H1 5950   0.163   0.374   3.105 -0.7235 -0.2203 -0.2902
 1469WAT     H2 5951   0.143   0.289   2.982 -0.9496 -0.8014  0.1387
 1469WAT    EPW 5952   0.154   0.295   3.068 -0.2640 -0.4305  0.0307
 1470WAT      O 5953   3.106   3.595   1.178  0.0623 -0.1723 -0.4533
 1470WAT     H1 5954   3.114   3.529   1.246 -2.0460  0.7472  0.7930
 1470WAT     H2 5955   3.133   3.677   1.220 -3.3721  0.8143  0.1643
 1470WAT    EPW 5956   3.110   3.597   1.192 -0.6688  0.0791 -0.2075
 1471WAT      O 5957   3.546   0.655   3.002  0.1019 -0.3132  0.1956
 1471WAT     H1 5958   3.475   0.624   3.059  0.2498  0.3666  0.7720
 1471WAT     H2 5959   3.501   0.685   2.923 -0.3557  0.8465  0.8695
 1471WAT    EPW 5960   3.530   0.655   2.999  0.0611 -0.0706  0.3605
 1472WAT      O 5961   3.014   2.348   1.621 -0.1806 -0.3173  0.1984
 1472WAT     H1 5962   3.069   2.426   1.610  0.9155 -0.9463  1.0006
 1472WAT     H2 5963   3.076   2.275   1.620 -1.3844 -1.4372 -2.8339
 1472WAT    EPW 5964   3.029   2.349   1.619 -0.1948 -0.5480 -0.0957
 1473WAT      O 5965   0.704   0.485   3.299 -0.8314 -0.1655  0.0364
 1473WAT     H1 5966   0.795   0.459   3.314 -0.2769  0.9152 -1.2506
 1473WAT     H2 5967   0.652   0.424   3.352  0.5779 -1.5295 -0.0922
 1473WAT    EPW 5968   0.709   0.473   3.308 -0.5724 -0.2029 -0.1503
 1474WAT      O 5969   1.012   1.158   3.702  0.4135  0.3423  0.2625
 1474WAT     H1 5970   1.025   1.121   3.614 -0.3996 -0.7885  0.5947
 1474WAT     H2 5971   0.917   1.170   3.709  0.3471 -0.6125  1.3603
 1474WAT    EPW 5972   1.001   1.154   3.691  0.2975  0.0673  0.4511
 1475WAT      O 5973   0.078   1.637   1.295  0.3320  0.1664 -0.1872
 1475WAT     H1 5974   0.122   1.552   1.294 -1.5978 -0.8807 -1.2305
 1475WAT     H2 5975   0.027   1.637   1.376 -0.1844  0.0402 -0.5077
 1475WAT    EPW 5976   0.077   1.626   1.305  0.0093  0.0116 -0.3671
 1476WAT      O 5977   1.373   2.894   2.249  0.3160  0.3010  0.0810
 1476WAT     H1 5978   1.468   2.880   2.253  0.6471  2.3587  0.6197
 1476WAT     H2 5979   1.361   2.952   2.173 -0.5048  0.0959  0.0486
 1476WAT    EPW 5980   1.384   2.900   2.239  0.2514  0.5453  0.1478
 1477WAT      O 5981   1.383   2.157   1.255 -0.3926 -0.3517  0.0391
 1477WAT     H1 5982   1.330   2.153   1.335 -0.1167  0.8147  0.2966
 1477WAT     H2 5983   1.447   2.087   1.265  0.4149  0.5447  1.4110
 1477WAT    EPW 5984   1.384   2.147   1.267 -0.2497 -0.0796  0.2540
 1478WAT      O 5985   3.224   2.707   0.196  0.5670  0.3970 -0.2718
 1478WAT     H1 5986   3.143   2.667   0.164 -0.3034  1.4530  0.5466
 1478WAT     H2 5987   3.204   2.734   0.285  1.2631  2.1848 -0.6143
 1478WAT    EPW 5988   3.211   2.706   0.203  0.5440  0.7721 -0.2090
 1479WAT      O 5989   0.459   1.675   1.345 -0.2353 -0.0511  0.0341
 1479WAT     H1 5990   0.370   1.699   1.367  0.3490  0.7307  1.7233
 1479WAT     H2 5991   0.453   1.584   1.315 -1.4939 -0.2525  0.8385
 1479WAT    EPW 5992   0.447   1.666   1.344 -0.3242  0.0255  0.3630
 1480WAT      O 5993   0.049   2.037   0.775 -0.5743  0.2498 -0.2896
 1480WAT     H1 5994  -0.008   1.961   0.779 -1.2577  0.7392 -0.6486
 1480WAT     H2 5995   0.041   2.077   0.862 -0.5055  0.1255 -0.2254
 1480WAT    EPW 5996   0.041   2.032   0.787 -0.6554  0.2979 -0.3285
 1481WAT      O 5997   0.338   0.920   2.131 -0.4333 -0.0142  0.0013
 1481WAT     H1 5998   0.421   0.881   2.104  0.1898  0.6493  0.8686
 1481WAT     H2 5999   0.306   0.966   2.053 -0.2772 -0.7409 -0.5000
 1481WAT    EPW 6000   0.345   0.921   2.117 -0.3305 -0.0225  0.0496
 1482WAT      O 6001   2.912   3.276   1.015  0.2324  0.4476 -0.3149
 1482WAT     H1 6002   2.989   3.328   0.994  0.0369  1.2562  0.8911
 1482WAT     H2 6003   2.838   3.329   0.985  0.0859  0.2236 -0.3589
 1482WAT    EPW 6004   2.912   3.289   1.008  0.1873  0.5247 -0.1617
 1483WAT      O 6005   1.394   1.617   2.581 -0.0393 -0.0886 -0.0883
 1483WAT     H1 6006   1.371   1.625   2.674 -0.3647 -1.1291 -0.0726
 1483WAT     H2 6007   1.384   1.706   2.547 -1.7748 -0.0360  0.4515
 1483WAT    EPW 6008   1.390   1.630   2.589 -0.3111 -0.2189 -0.0150
 1484WAT      O 6009   1.279   3.018   2.477 -0.4829 -0.4672 -0.5620
 1484WAT     H1 6010   1.213   2.951   2.492  1.4645 -2.2137  0.8042
 1484WAT     H2 6011   1.338   2.979   2.413  0.7973 -0.1953  0.4141
 1484WAT    EPW 6012   1.278   3.004   2.471 -0.0572 -0.6617 -0.2531
 1485WAT      O 6013   2.077   0.783   1.577  0.5541 -0.5041 -0.0652
 1485WAT     H1 6014   2.088   0.688   1.572  0.0385 -0.5757  0.0909
 1485WAT     H2 6015   2.163   0.818   1.554  0.4004 -0.9719 -1.4750
 1485WAT    EPW 6016   2.090   0.775   1.573  0.4658 -0.5753 -0.2305
 1486WAT      O 6017   2.505   3.055   1.009  0.5712 -0.1328  0.7497
 1486WAT     H1 6018   2.583   3.027   1.056 -0.4017 -2.4918  1.0549
 1486WAT     H2 6019   2.436   3.057   1.075 -0.3383 -1.3708 -0.1367
 1486WAT    EPW 6020   2.506   3.052   1.024  0.3229 -0.6072  0.6731
 1487WAT      O 6021   1.070   0.474   0.321 -0.2343  0.1749 -0.4020
 1487WAT     H1 6022   0.993   0.457   0.267  0.7478 -0.6830 -1.6013
 1487WAT     H2 6023   1.058   0.564   0.353 -2.4548 -0.4535  0.7483
 1487WAT    EPW 6024   1.058   0.484   0.318 -0.3976 -0.0211 -0.4085
 1488WAT      O 6025   2.116   2.238   3.262 -0.0425 -0.1746  0.4660
 1488WAT     H1 6026   2.173   2.217   3.189 -0.7108  0.4919 -0.2623
 1488WAT     H2 6027   2.158   2.312   3.306 -0.1454  0.0604  0.1681
 1488WAT    EPW 6028   2.129   2.245   3.258 -0.1442 -0.0557  0.3306
 1489WAT      O 6029   3.602   2.856   0.303  0.2595  0.3039  0.4179
 1489WAT     H1 6030   3.636   2.775   0.340  1.3034  0.2766 -0.5753
 1489WAT     H2 6031   3.560   2.830   0.221  0.3375  0.7332  0.2379
 1489WAT    EPW 6032   3.601   2.842   0.297  0.4075  0.3569  0.2632
 1490WAT      O 6033   2.109   0.249   1.755 -0.2803  0.3415  0.3045
 1490WAT     H1 6034   2.073   0.173   1.709  2.1354 -0.1657 -0.9554
 1490WAT     H2 6035   2.161   0.211   1.826  0.5231  0.8109 -0.0134
 1490WAT    EPW 6036   2.111   0.234   1.758  0.1443  0.3365  0.0964
 1491WAT      O 6037   2.189   0.010   3.119 -0.3934 -0.3764 -0.1603
 1491WAT     H1 6038   2.174  -0.004   3.212 -1.7879  2.2525  0.0849
 1491WAT     H2 6039   2.175   0.103   3.106 -1.3473 -0.8400 -3.2109
 1491WAT    EPW 6040   2.185   0.020   3.129 -0.7032 -0.0908 -0.5303
 1492WAT      O 6041   0.777   0.430   2.493 -0.3049  0.2221  0.2161
 1492WAT     H1 6042   0.760   0.432   2.588  1.1011 -0.6054  0.5138
 1492WAT     H2 6043   0.805   0.519   2.472 -3.1505  1.1684  0.0205
 1492WAT    EPW 6044   0.778   0.442   2.503 -0.4948  0.2378  0.2295
 1493WAT      O 6045   3.687   0.133   0.649  0.0045 -0.0461 -0.2916
 1493WAT     H1 6046   3.622   0.162   0.713 -0.1848  0.2488 -0.6141
 1493WAT     H2 6047   3.718   0.049   0.683 -0.1970  0.0408  0.1118
 1493WAT    EPW 6048   3.682   0.126   0.662 -0.0470  0.0043 -0.2810
 1494WAT      O 6049   3.669   1.864   0.448  0.0999  0.1700  0.2066
 1494WAT     H1 6050   3.641   1.841   0.359 -1.3683 -0.5279  0.8166
 1494WAT     H2 6051   3.604   1.823   0.505 -0.3507  2.5501  1.5357
 1494WAT    EPW 6052   3.657   1.855   0.443 -0.1532  0.3919  0.4624
 1495WAT      O 6053   0.869   0.917   3.831  0.0982 -0.1683 -0.1557
 1495WAT     H1 6054   0.955   0.932   3.870  0.1698 -0.8323 -0.0377
 1495WAT     H2 6055   0.816   0.883   3.904 -0.1668 -0.0853 -0.3091
 1495WAT    EPW 6056   0.873   0.915   3.846  0.0727 -0.2449 -0.1604
 1496WAT      O 6057   2.007   2.438   2.231 -0.0189 -0.3150  0.3842
 1496WAT     H1 6058   2.036   2.380   2.160 -2.5645 -0.0968 -0.9404
 1496WAT     H2 6059   2.083   2.445   2.288  2.1162 -0.7065 -2.1906
 1496WAT    EPW 6060   2.021   2.432   2.229 -0.0731 -0.3378 -0.1301
 1497WAT      O 6061   0.366   2.444   1.210 -0.1708  0.0375 -0.3580
 1497WAT     H1 6062   0.354   2.505   1.282  0.5392 -0.5464  0.2762
 1497WAT     H2 6063   0.442   2.392   1.235 -1.0433 -1.4330 -0.6453
 1497WAT    EPW 6064   0.374   2.445   1.223 -0.1922 -0.2335 -0.3122
 1498WAT      O 6065   1.500   3.229   3.636  0.1111 -0.0733 -0.2232
 1498WAT     H1 6066   1.590   3.202   3.657 -0.9240 -2.1167  1.9115
 1498WAT     H2 6067   1.470   3.276   3.713 -0.5723  0.9947 -1.1023
 1498WAT    EPW 6068   1.508   3.232   3.649 -0.1156 -0.2020 -0.0576
 1499WAT      O 6069   2.315   1.323   1.345  0.4711 -0.4032  0.1272
 1499WAT     H1 6070   2.349   1.314   1.434 -0.1983  1.2808  0.5765
 1499WAT     H2 6071   2.258   1.399   1.348  0.2188 -0.4743 -1.6931
 1499WAT    EPW 6072   2.312   1.332   1.357  0.3496 -0.1905 -0.0537
 1500WAT      O 6073   2.374   1.406   0.947 -0.0988  0.8231 -0.3513
 1500WAT     H1 6074   2.464   1.423   0.920  0.9802 -1.6313  1.2693
 1500WAT     H2 6075   2.367   1.443   1.035 -0.4723  0.4653 -0.2238
 1500WAT    EPW 6076   2.385   1.413   0.955 -0.0058  0.4522 -0.1208
 1501WAT      O 6077   0.878   0.237   1.100  0.3537  0.2022  0.4111
 1501WAT     H1 6078   0.936   0.313   1.112 -0.7094  0.9462  1.0416
 1501WAT     H2 6079   0.790   0.273   1.105 -0.1812 -0.9294 -0.4029
 1501WAT    EPW 6080   0.874   0.252   1.102  0.1430  0.1511  0.3869
 1502WAT      O 6081   0.010   2.774   0.620 -0.5540 -0.4697 -0.0557
 1502WAT     H1 6082  -0.050   2.701   0.631  1.3769 -2.0517  0.6716
 1502WAT     H2 6083  -0.025   2.843   0.677 -1.4613 -1.4570  0.6156
 1502WAT    EPW 6084  -0.002   2.774   0.629 -0.4190 -0.8086  0.1287
 1503WAT      O 6085   0.449   2.918   2.775  0.5605  0.0164 -0.4302
 1503WAT     H1 6086   0.506   2.956   2.842 -0.1872 -0.2635  0.3877
 1503WAT     H2 6087   0.495   2.839   2.747 -0.3620 -1.4144  1.7885
 1503WAT    EPW 6088   0.463   2.913   2.780  0.3402 -0.2092 -0.0297
 1504WAT      O 6089   3.528   2.333   3.648 -0.0367 -0.0957 -0.1061
 1504WAT     H1 6090   3.459   2.267   3.645 -0.7327  0.5956  0.1533
 1504WAT     H2 6091   3.572   2.319   3.731 -1.2740  0.8045  0.7493
 1504WAT    EPW 6092   3.525   2.323   3.658 -0.2917  0.1142  0.0409
 1505WAT      O 6093   2.595   1.650   0.278  0.1586  0.0004 -0.3815
 1505WAT     H1 6094   2.508   1.620   0.306 -0.2140  1.5660  0.2927
 1505WAT     H2 6095   2.616   1.721   0.338  1.0287  0.9793 -1.7669
 1505WAT    EPW 6096   2.586   1.656   0.289  0.2242  0.3360 -0.4753
 1506WAT      O 6097   0.408   1.303   3.515  0.1875  0.0079 -0.3201
 1506WAT     H1 6098   0.500   1.277   3.506  1.0042  2.3252  0.5457
 1506WAT     H2 6099   0.359   1.232   3.474  2.4498 -0.4148 -2.5346
 1506WAT    EPW 6100   0.414   1.290   3.509  0.5936  0.2578 -0.4980
 1507WAT      O 6101   1.862   0.814   3.039 -0.3779  0.1417 -0.3537
 1507WAT     H1 6102   1.796   0.848   3.100 -0.4705  0.4629 -0.6327
 1507WAT     H2 6103   1.943   0.858   3.065 -0.3202 -0.0808 -0.1570
 1507WAT    EPW 6104   1.864   0.824   3.050 -0.3825  0.1548 -0.3646
 1508WAT      O 6105   1.824   1.624   2.239 -0.1412  0.0144  0.2866
 1508WAT     H1 6106   1.894   1.626   2.173 -1.0448  1.3209 -0.6796
 1508WAT     H2 6107   1.744   1.609   2.188 -0.6085 -1.3757  1.3590
 1508WAT    EPW 6108   1.823   1.622   2.223 -0.3220  0.0033  0.3006
 1509WAT      O 6109   2.522   1.473   0.079 -0.3832 -0.0392  0.2092
 1509WAT     H1 6110   2.590   1.412   0.106 -1.0713 -1.2048 -0.6164
 1509WAT     H2 6111   2.532   1.548   0.139 -0.2074 -1.3968  1.9693
 1509WAT    EPW 6112   2.532   1.475   0.091 -0.4508 -0.3720  0.3324
 1510WAT      O 6113   3.134   2.281   0.749  0.2509  0.0288 -0.0809
 1510WAT     H1 6114   3.102   2.299   0.661  2.8835 -1.7443 -1.5406
 1510WAT     H2 6115   3.207   2.343   0.760  0.3830 -0.2340  0.5679
 1510WAT    EPW 6116   3.140   2.292   0.739  0.6156 -0.2397 -0.1879
 1511WAT      O 6117   0.828   4.098   1.962  0.2214 -0.7829 -0.0320
 1511WAT     H1 6118   0.840   4.167   1.896  3.2178 -0.7395  0.4265
 1511WAT     H2 6119   0.746   4.121   2.005 -0.0678  1.1561 -1.4337
 1511WAT    EPW 6120   0.819   4.110   1.959  0.5784 -0.5215 -0.1564
 1512WAT      O 6121   2.332   3.628   0.674 -0.2159 -0.0164  0.2604
 1512WAT     H1 6122   2.354   3.536   0.665 -1.6232 -0.3045 -0.5158
 1512WAT     H2 6123   2.282   3.649   0.594  1.9843  2.0063 -0.7193
 1512WAT    EPW 6124   2.328   3.619   0.662 -0.1113  0.2124  0.0288
 1513WAT      O 6125   1.813   1.622   3.473  0.5274 -0.0037 -0.0954
 1513WAT     H1 6126   1.762   1.569   3.411 -0.8467 -0.0780  1.0490
 1513WAT     H2 6127   1.807   1.573   3.555 -0.3462  1.6446  0.8670
 1513WAT    EPW 6128   1.805   1.608   3.476  0.2309  0.2039  0.1825
 1514WAT      O 6129   2.104   2.566   1.639  0.2601 -0.2038 -0.0316
 1514WAT     H1 6130   2.047   2.631   1.681  0.3087  0.8950 -1.5848
 1514WAT     H2 6131   2.191   2.581   1.677 -0.1653 -0.9849  1.3457
 1514WAT    EPW 6132   2.108   2.576   1.650  0.2104 -0.1619 -0.0548
 1515WAT      O 6133   3.666   0.489   1.007  0.1643  0.7794  0.2049
 1515WAT     H1 6134   3.758   0.483   1.030  0.4366  0.8221 -0.8051
 1515WAT     H2 6135   3.620   0.451   1.082  1.0831 -0.5895  0.1076
 1515WAT    EPW 6136   3.672   0.483   1.020  0.3214  0.6045  0.0589
 1516WAT      O 6137   0.436   1.462   0.413  0.1033  0.3139  0.5260
 1516WAT     H1 6138   0.416   1.552   0.437 -0.9820  0.2150  0.0689
 1516WAT     H2 6139   0.463   1.468   0.321  0.6359  0.2454  0.6764
 1516WAT    EPW 6140   0.437   1.475   0.404  0.0304  0.2918  0.4855
 1517WAT      O 6141   2.748   3.930   2.990  0.2691  0.2838 -0.5904
 1517WAT     H1 6142   2.736   4.016   3.029  1.9392  0.4435 -0.3648
 1517WAT     H2 6143   2.770   3.873   3.064  1.8063  0.2452 -1.0286
 1517WAT    EPW 6144   2.750   3.933   3.005  0.6921  0.2998 -0.6184
 1518WAT      O 6145   2.154   3.444   1.056 -0.0438  0.1760 -0.3582
 1518WAT     H1 6146   2.224   3.399   1.010 -0.9704 -1.3977 -0.2948
 1518WAT     H2 6147   2.151   3.531   1.016  0.5730 -0.4372 -1.7938
 1518WAT    EPW 6148   2.163   3.450   1.045 -0.0847 -0.1125 -0.5392
 1519WAT      O 6149   2.554   2.330   1.340 -0.2706  0.3109  0.3343
 1519WAT     H1 6150   2.515   2.339   1.427 -1.2685 -0.1401 -0.0523
 1519WAT     H2 6151   2.555   2.419   1.306  0.9811  0.6379  1.1437
 1519WAT    EPW 6152   2.549   2.343   1.347 -0.2371  0.2945  0.3901
 1520WAT      O 6153   1.034   3.767   3.087 -0.0035 -0.9244  0.4258
 1520WAT     H1 6154   1.093   3.833   3.124 -0.8022 -0.8008  1.5210
 1520WAT     H2 6155   1.021   3.704   3.158 -2.4950 -0.0746  0.8226
 1520WAT    EPW 6156   1.040   3.767   3.101 -0.4375 -0.7960  0.6226
 1521WAT      O 6157   2.044   1.909   0.594 -0.6220 -0.3458 -0.2473
 1521WAT     H1 6158   2.094   1.958   0.528  0.0745 -0.3300  0.2798
 1521WAT     H2 6159   2.089   1.926   0.677  0.0563 -2.4147 -0.1294
 1521WAT    EPW 6160   2.056   1.918   0.596 -0.4406 -0.6166 -0.1623
 1522WAT      O 6161   0.605   2.386   0.658 -0.0600 -0.6135  0.5883
 1522WAT     H1 6162   0.556   2.400   0.739  0.2593  3.7722  0.2518
 1522WAT     H2 6163   0.554   2.431   0.591  2.7191  1.3649 -0.3779
 1522WAT    EPW 6164   0.592   2.394   0.660  0.3487  0.2259  0.4164
 1523WAT      O 6165   0.217   2.585   0.181 -0.5729  0.5939 -0.2148
 1523WAT     H1 6166   0.194   2.615   0.269 -0.8084  2.0924 -0.7571
 1523WAT     H2 6167   0.144   2.530   0.154 -0.6842  0.4472  0.3770
 1523WAT    EPW 6168   0.204   2.582   0.189 -0.6186  0.7722 -0.2082
 1524WAT      O 6169   3.175   2.134   2.660  0.1431 -0.0388  0.1567
 1524WAT     H1 6170   3.220   2.199   2.606 -1.1960  0.4816 -0.3661
 1524WAT     H2 6171   3.241   2.066   2.676  1.0442  0.6007 -0.7464
 1524WAT    EPW 6172   3.190   2.133   2.655  0.0853  0.1142 -0.0314
 1525WAT      O 6173   1.216   2.123   0.149 -0.5414  0.2996  0.0936
 1525WAT     H1 6174   1.155   2.168   0.091 -0.1787  1.5130  0.6319
 1525WAT     H2 6175   1.233   2.185   0.219  2.1197  0.4005 -0.5731
 1525WAT    EPW 6176   1.210   2.137   0.150 -0.1426  0.4729  0.0767
 1526WAT      O 6177   3.570   0.152   1.925 -0.0065  0.3084  0.5850
 1526WAT     H1 6178   3.637   0.147   1.993 -0.1923  1.1325  0.8407
 1526WAT     H2 6179   3.616   0.126   1.845  1.1291  2.5252  0.4259
 1526WAT    EPW 6180   3.585   0.148   1.923  0.1188  0.7095  0.5978
 1527WAT      O 6181   2.981   1.982   1.653  0.5367 -0.2162  0.2838
 1527WAT     H1 6182   2.969   2.013   1.563 -0.0533 -1.0505  0.0638
 1527WAT     H2 6183   3.070   2.009   1.676  1.2511 -1.2711 -1.0866
 1527WAT    EPW 6184   2.991   1.990   1.644  0.5531 -0.4654  0.0740
 1528WAT      O 6185   3.164   1.363   0.418 -0.4458  0.1895  1.0695
 1528WAT     H1 6186   3.076   1.397   0.406 -0.4126 -0.0257  0.1255
 1528WAT     H2 6187   3.163   1.278   0.375  0.7241  0.9782 -0.6052
 1528WAT    EPW 6188   3.152   1.356   0.411 -0.2871  0.2652  0.7241
 1529WAT      O 6189   1.834   2.593   0.798  0.8141  0.1109  0.5829
 1529WAT     H1 6190   1.905   2.636   0.846  0.8948 -0.0499  0.6084
 1529WAT     H2 6191   1.802   2.660   0.738  0.0670  0.6327  1.5265
 1529WAT    EPW 6192   1.839   2.608   0.797  0.7262  0.1585  0.7107
 1530WAT      O 6193   0.257   0.431   1.052  0.2852  0.0171  1.1460
 1530WAT     H1 6194   0.332   0.459   1.105  0.6185 -1.8653  1.7500
 1530WAT     H2 6195   0.289   0.354   1.004  0.1012  1.8243 -2.1536
 1530WAT    EPW 6196   0.271   0.424   1.053  0.3049  0.0072  0.7905
 1531WAT      O 6197   2.955   0.641   1.022 -0.0154  0.1619 -0.4626
 1531WAT     H1 6198   2.929   0.688   1.101  1.2990 -1.6965  1.2049
 1531WAT     H2 6199   3.047   0.663   1.010 -0.6630  1.9848 -2.7364
 1531WAT    EPW 6200   2.964   0.650   1.031  0.0726  0.1572 -0.5426
 1532WAT      O 6201   0.303   1.345   0.096  0.2319 -0.1895  0.1662
 1532WAT     H1 6202   0.251   1.337   0.177 -0.2515 -1.1789 -0.2243
 1532WAT     H2 6203   0.242   1.321   0.027  0.7417  0.3327 -0.4714
 1532WAT    EPW 6204   0.288   1.341   0.098  0.2354 -0.2511  0.0306
 1533WAT      O 6205   3.496   1.253   0.698 -0.3077  0.5725  0.0978
 1533WAT     H1 6206   3.476   1.329   0.644 -0.7149  0.8225  0.5878
 1533WAT     H2 6207   3.428   1.189   0.676  0.1825  0.2475 -0.4996
 1533WAT    EPW 6208   3.484   1.254   0.688 -0.2968  0.5626  0.0837
 1534WAT      O 6209   3.708   1.404   1.785 -0.2301 -0.2686  0.2463
 1534WAT     H1 6210   3.648   1.432   1.854 -0.9610 -0.5186 -0.2828
 1534WAT     H2 6211   3.777   1.356   1.832 -0.8669 -0.6894  0.7717
 1534WAT    EPW 6212   3.710   1.402   1.801 -0.4105 -0.3571  0.2458
 1535WAT      O 6213   3.108   0.532   0.722  0.6648  0.1552 -0.4645
 1535WAT     H1 6214   3.203   0.539   0.728  0.8146 -1.1171 -0.9005
 1535WAT     H2 6215   3.086   0.458   0.778  0.0001  0.0786 -0.8182
 1535WAT    EPW 6216   3.118   0.523   0.730  0.5969 -0.0227 -0.5687
 1536WAT      O 6217   1.726   3.784   1.217 -0.1746 -0.3656  0.3584
 1536WAT     H1 6218   1.794   3.851   1.208  0.1272 -0.6618  0.4216
 1536WAT     H2 6219   1.773   3.702   1.219 -0.5680 -0.6042 -0.0114
 1536WAT    EPW 6220   1.741   3.782   1.216 -0.1867 -0.4361  0.3180
 1537WAT      O 6221   0.782   2.118   1.885  0.6023  0.3186 -0.0773
 1537WAT     H1 6222   0.808   2.026   1.896 -0.3419  0.1337  0.7886
 1537WAT     H2 6223   0.814   2.142   1.799  0.7953 -0.8593 -0.3506
 1537WAT    EPW 6224   0.790   2.109   1.875  0.5032  0.1389  0.0009
 1538WAT      O 6225   1.254   0.083   1.101 -0.1018  0.6910  0.2122
 1538WAT     H1 6226   1.303   0.017   1.052 -0.2597  0.8875 -0.2129
 1538WAT     H2 6227   1.203   0.130   1.035 -1.1658  0.2394  0.6759
 1538WAT    EPW 6228   1.254   0.080   1.086 -0.2630  0.6573  0.2173
 1539WAT      O 6229   0.458   0.197   2.944 -0.1682 -0.4725 -0.3141
 1539WAT     H1 6230   0.375   0.199   2.896 -1.0766 -2.5854  1.0388
 1539WAT     H2 6231   0.516   0.144   2.888 -0.7626 -1.6839  0.1851
 1539WAT    EPW 6232   0.455   0.190   2.930 -0.3664 -0.9110 -0.0698
 1540WAT      O 6233   2.253   1.664   2.615 -0.8205 -0.1525  0.0926
 1540WAT     H1 6234   2.161   1.644   2.601 -0.9091  0.5168 -0.3277
 1540WAT     H2 6235   2.300   1.592   2.574 -1.1481 -0.1112 -0.3596
 1540WAT    EPW 6236   2.247   1.652   2.608 -0.8754 -0.0588 -0.0225
 1541WAT      O 6237   2.175   2.118   0.394  0.2386 -0.4326 -0.0908
 1541WAT     H1 6238   2.135   2.107   0.308 -1.0095  3.0696 -0.1572
 1541WAT     H2 6239   2.258   2.163   0.377  1.4426 -2.3658  0.4219
 1541WAT    EPW 6240   2.181   2.123   0.381  0.2328 -0.2257 -0.0320
 1542WAT      O 6241   3.009   0.502   3.492  0.0583  0.0732  0.0962
 1542WAT     H1 6242   3.026   0.408   3.488  0.0569  0.1041 -0.7640
 1542WAT     H2 6243   2.993   0.528   3.401  4.0456  1.6546 -0.3266
 1542WAT    EPW 6244   3.009   0.493   3.480  0.5840  0.2858 -0.0730
 1543WAT      O 6245   2.821   1.788   3.481 -0.0876 -0.8297  0.9688
 1543WAT     H1 6246   2.777   1.703   3.475 -0.3291 -0.6245 -0.3533
 1543WAT     H2 6247   2.840   1.812   3.391  0.6322  0.1961  1.3717
 1543WAT    EPW 6248   2.818   1.780   3.469 -0.0245 -0.6673  0.8475
 1544WAT      O 6249   3.430   3.087   1.373  0.0726  0.8614  0.7398
 1544WAT     H1 6250   3.365   3.124   1.314 -0.0484 -0.6129 -0.0973
 1544WAT     H2 6251   3.451   3.002   1.335  1.1757  0.5531  1.9697
 1544WAT    EPW 6252   3.424   3.081   1.360  0.2021  0.6263  0.7916
 1545WAT      O 6253   1.847   0.362   2.553 -0.0201 -0.5513  0.0547
 1545WAT     H1 6254   1.794   0.309   2.494  1.5818 -0.7437 -1.2669
 1545WAT     H2 6255   1.848   0.449   2.513  1.4585 -0.7954 -0.5040
 1545WAT    EPW 6256   1.840   0.367   2.540  0.3862 -0.6089 -0.1933
 1546WAT      O 6257   0.059   4.232   0.681  0.4576  0.2138 -0.3260
 1546WAT     H1 6258   0.092   4.193   0.761  0.7293 -0.3842 -0.7192
 1546WAT     H2 6259  -0.021   4.182   0.662  0.1519  0.6478 -0.1906
 1546WAT    EPW 6260   0.053   4.220   0.689  0.4531  0.1922 -0.3600
 1547WAT      O 6261   0.796   0.396   0.632  0.0202  0.1770  0.3252
 1547WAT     H1 6262   0.741   0.323   0.661  1.3435 -1.6732 -1.5513
 1547WAT     H2 6263   0.757   0.426   0.550  0.5562  0.3064  0.1092
 1547WAT    EPW 6264   0.784   0.390   0.625  0.2654 -0.0500  0.0492
 1548WAT      O 6265   1.398   3.680   3.315 -0.2974 -0.7993  0.1832
 1548WAT     H1 6266   1.391   3.762   3.268 -0.3910 -1.1528 -0.4285
 1548WAT     H2 6267   1.394   3.704   3.408  0.7682 -0.0057  0.0369
 1548WAT    EPW 6268   1.397   3.694   3.321 -0.1692 -0.7413  0.0832
 1549WAT      O 6269   1.580   3.698   2.437  0.3151  0.3030  0.3061
 1549WAT     H1 6270   1.526   3.697   2.358 -0.5036  2.0539  0.8034
 1549WAT     H2 6271   1.665   3.665   2.408 -0.5887 -1.1854 -0.7957
 1549WAT    EPW 6272   1.584   3.694   2.423  0.0879  0.3376  0.2264
 1550WAT      O 6273   2.583   2.186   2.219  0.1061 -0.3411  0.2885
 1550WAT     H1 6274   2.647   2.181   2.290 -0.2673 -0.5006  0.6161
 1550WAT     H2 6275   2.498   2.173   2.262 -0.3515  1.9372  0.1794
 1550WAT    EPW 6276   2.580   2.183   2.234 -0.0035 -0.0616  0.3173
 1551WAT      O 6277   2.088   0.222   2.610  0.5556  0.4004 -0.0646
 1551WAT     H1 6278   2.010   0.269   2.580  0.2032  0.1447  0.4346
 1551WAT     H2 6279   2.062   0.182   2.693  2.2645  3.1523  1.9441
 1551WAT    EPW 6280   2.074   0.223   2.617  0.7345  0.7297  0.2662
 1552WAT      O 6281   3.050   3.653   1.509 -0.4228  0.2448  0.1386
 1552WAT     H1 6282   3.019   3.734   1.468 -1.0508 -0.7156 -1.3504
 1552WAT     H2 6283   3.015   3.657   1.599 -0.1718  1.7561  0.1854
 1552WAT    EPW 6284   3.041   3.664   1.516 -0.4725  0.3174 -0.0516
 1553WAT      O 6285   2.883   2.647   3.402 -0.7723  0.2120 -0.2086
 1553WAT     H1 6286   2.920   2.621   3.317 -1.0926 -0.8931 -0.0122
 1553WAT     H2 6287   2.936   2.602   3.467 -0.7470  0.7900  0.1820
 1553WAT    EPW 6288   2.895   2.638   3.399 -0.8112  0.1424 -0.1312
 1554WAT      O 6289   2.724   3.550   2.921 -0.1874 -0.1351 -0.6430
 1554WAT     H1 6290   2.681   3.624   2.879  1.2639  3.4796  3.4814
 1554WAT     H2 6291   2.816   3.557   2.893  0.2432  0.6408  0.8622
 1554WAT    EPW 6292   2.731   3.561   2.912  0.0608  0.4440  0.0995
 1555WAT      O 6293   1.280   1.930   2.713 -0.2256 -0.6771 -0.1241
 1555WAT     H1 6294   1.209   1.987   2.685 -0.9633 -0.6157  1.7363
 1555WAT     H2 6295   1.358   1.986   2.712 -0.8249  0.2184  1.0790
 1555WAT    EPW 6296   1.281   1.945   2.709 -0.4019 -0.5509  0.2799
 1556WAT      O 6297   3.027   3.773   3.380 -0.4608 -0.3609  0.0673
 1556WAT     H1 6298   3.047   3.852   3.430  1.7734 -1.6230  1.3455
 1556WAT     H2 6299   3.049   3.796   3.290  0.2186  0.4468  0.4242
 1556WAT    EPW 6300   3.032   3.787   3.375 -0.0765 -0.4208  0.2830
 1557WAT      O 6301   3.352   1.741   2.568  0.3611 -0.5406  0.1228
 1557WAT     H1 6302   3.311   1.657   2.588  0.0927 -0.2013  1.0833
 1557WAT     H2 6303   3.427   1.719   2.513  0.4169 -1.4320  0.5329
 1557WAT    EPW 6304   3.357   1.727   2.564  0.3331 -0.6134  0.3035
 1558WAT      O 6305   1.393   0.246   3.059 -0.2016 -0.3947  0.0937
 1558WAT     H1 6306   1.339   0.313   3.018  0.2791 -0.8213 -1.2722
 1558WAT     H2 6307   1.343   0.220   3.137 -0.5968  1.2043  0.4097
 1558WAT    EPW 6308   1.379   0.251   3.064 -0.1903 -0.2400 -0.0447
 1559WAT      O 6309   3.278   4.090   0.984  0.3141  0.1821 -0.0495
 1559WAT     H1 6310   3.203   4.044   0.947 -0.3473  1.3117 -0.1390
 1559WAT     H2 6311   3.248   4.121   1.069  1.7357 -2.1590  1.4061
 1559WAT    EPW 6312   3.264   4.088   0.990  0.4143  0.0223  0.1307
 1560WAT      O 6313   0.009   4.222   0.189  0.1222 -0.2076  0.4933
 1560WAT     H1 6314  -0.036   4.206   0.107  0.1360 -0.9640  0.6214
 1560WAT     H2 6315   0.016   4.136   0.230 -0.3480  0.2255  1.5259
 1560WAT    EPW 6316   0.004   4.209   0.184  0.0620 -0.2502  0.6464
 1561WAT      O 6317   0.019   1.099   1.670  0.5048  0.1291  0.2004
 1561WAT     H1 6318   0.034   1.059   1.584  0.0937  0.8115 -0.2014
 1561WAT     H2 6319   0.065   1.183   1.666  2.2397 -0.7148  1.4067
 1561WAT    EPW 6320   0.027   1.105   1.658  0.6794  0.1078  0.3065
 1562WAT      O 6321   3.360   0.231   0.291 -0.1609 -0.3057  0.2767
 1562WAT     H1 6322   3.452   0.207   0.291 -0.4903 -1.8574 -1.5169
 1562WAT     H2 6323   3.334   0.229   0.383  1.3446 -0.8014  0.7149
 1562WAT    EPW 6324   3.368   0.228   0.303 -0.0058 -0.5758  0.0979
 1563WAT      O 6325   1.345   0.745   0.613  0.3792  0.1871  0.0836
 1563WAT     H1 6326   1.380   0.657   0.602  0.2865  0.2603 -0.8530
 1563WAT     H2 6327   1.285   0.757   0.539 -1.7593  0.0257  1.6736
 1563WAT    EPW 6328   1.341   0.735   0.602  0.0849  0.1755  0.1698
 1564WAT      O 6329   0.424   0.233   2.314  0.1953 -0.0742 -0.0196
 1564WAT     H1 6330   0.495   0.282   2.272  0.3620 -0.1556  0.1668
 1564WAT     H2 6331   0.460   0.145   2.327 -0.1108 -0.2506 -0.3680
 1564WAT    EPW 6332   0.438   0.228   2.310  0.1769 -0.1082 -0.0409
 1565WAT      O 6333   0.445   1.095   0.048  0.1774  0.2465  0.2458
 1565WAT     H1 6334   0.455   1.097  -0.047 -0.7696  0.4981  0.1496
 1565WAT     H2 6335   0.413   1.183   0.071  1.2932  0.5027  0.9061
 1565WAT    EPW 6336   0.442   1.107   0.039  0.1997  0.3135  0.3202
 1566WAT      O 6337   3.663   2.835   1.717  0.3314 -0.0560  0.4195
 1566WAT     H1 6338   3.733   2.898   1.736  0.3404 -0.6995  2.8611
 1566WAT     H2 6339   3.583   2.888   1.718  0.3953  0.0498  1.8881
 1566WAT    EPW 6340   3.662   2.851   1.720  0.3410 -0.1269  0.9352
 1567WAT      O 6341   0.043   3.555   1.146  0.0258  0.7108 -0.1607
 1567WAT     H1 6342   0.052   3.483   1.083  1.4185  0.3289  0.4253
 1567WAT     H2 6343   0.057   3.634   1.094 -1.2237  0.5548 -0.7598
 1567WAT    EPW 6344   0.046   3.556   1.131  0.0447  0.6399 -0.1624
 1568WAT      O 6345   0.693   2.472   1.820 -0.3312 -0.1203  0.2973
 1568WAT     H1 6346   0.744   2.422   1.884  0.6813  0.6979  0.1568
 1568WAT     H2 6347   0.759   2.507   1.759 -1.1081  0.5742 -0.1621
 1568WAT    EPW 6348   0.709   2.470   1.821 -0.3001  0.0792  0.2182
 1569WAT      O 6349   0.638   0.408   2.250 -0.5925 -0.0711  0.8591
 1569WAT     H1 6350   0.686   0.429   2.329  0.0558  1.5505  0.0799
 1569WAT     H2 6351   0.695   0.437   2.179 -3.7199  4.8923 -0.1524
 1569WAT    EPW 6352   0.652   0.415   2.251 -0.9195  0.7975  0.6230
 1570WAT      O 6353   2.846   1.836   3.020  0.1612  0.4036 -0.2833
 1570WAT     H1 6354   2.759   1.798   3.015  0.2200  0.2147  0.0780
 1570WAT     H2 6355   2.848   1.882   3.104  0.4339  0.3413 -0.2531
 1570WAT    EPW 6356   2.835   1.837   3.031  0.2049  0.3705 -0.2316
 1571WAT      O 6357   2.188   4.008   2.810 -0.0794  0.1028  0.0771
 1571WAT     H1 6358   2.268   3.966   2.779 -0.2964 -0.9550  0.8858
 1571WAT     H2 6359   2.172   4.078   2.746 -0.1652 -1.5664 -1.8531
 1571WAT    EPW 6360   2.196   4.012   2.797 -0.1193 -0.2569 -0.0708
 1572WAT      O 6361   2.540   1.784   2.951  0.3513  1.2163 -0.2306
 1572WAT     H1 6362   2.563   1.856   2.892 -0.6760 -0.1665 -2.4057
 1572WAT     H2 6363   2.563   1.705   2.903 -1.8419 -0.0026  0.6006
 1572WAT    EPW 6364   2.546   1.783   2.937 -0.0734  0.8731 -0.4078
 1573WAT      O 6365   0.211   0.704   2.329  0.6600  0.5718 -0.2884
 1573WAT     H1 6366   0.180   0.790   2.358 -0.7296  0.1689 -0.4694
 1573WAT     H2 6367   0.265   0.723   2.252 -2.2993  1.1751 -2.4299
 1573WAT    EPW 6368   0.214   0.718   2.322  0.0864  0.5983 -0.5947
 1574WAT      O 6369   2.273   4.053   0.809  0.1931  0.4163  0.2660
 1574WAT     H1 6370   2.251   4.019   0.722  1.1463 -2.1294  0.9151
 1574WAT     H2 6371   2.328   4.129   0.792 -0.6359  0.6988 -1.3345
 1574WAT    EPW 6372   2.278   4.058   0.795  0.2095  0.1178  0.1406
 1575WAT      O 6373   2.733   4.204   0.026 -0.3602  0.1009  0.2080
 1575WAT     H1 6374   2.714   4.254   0.106 -4.0978  0.7248 -0.8696
 1575WAT     H2 6375   2.744   4.270  -0.042 -0.7828 -0.4720 -0.4279
 1575WAT    EPW 6376   2.732   4.219   0.028 -0.9089  0.1076 -0.0180
 1576WAT      O 6377   3.087   1.595   0.021 -0.0329 -0.0514 -0.3762
 1576WAT     H1 6378   3.165   1.642  -0.009  0.6880 -0.5372  0.6877
 1576WAT     H2 6379   3.089   1.512  -0.026  0.5760 -0.4195  0.2831
 1576WAT    EPW 6380   3.097   1.590   0.011  0.1425 -0.1640 -0.1489
 1577WAT      O 6381   3.655   1.308   0.388 -0.0720  0.1537 -0.9526
 1577WAT     H1 6382   3.680   1.359   0.311 -0.9163  2.8571  0.4483
 1577WAT     H2 6383   3.683   1.362   0.463 -1.2115 -1.3608  0.6420
 1577WAT    EPW 6384   3.662   1.322   0.388 -0.3336  0.3105 -0.5575
 1578WAT      O 6385   0.303   4.108   2.066  0.3096 -0.1699  0.9731
 1578WAT     H1 6386   0.245   4.036   2.093  1.3625 -0.6253  2.0970
 1578WAT     H2 6387   0.292   4.113   1.971 -1.6161 -0.1896  1.1563
 1578WAT    EPW 6388   0.294   4.099   2.057  0.1945 -0.2326  1.1455
 1579WAT      O 6389   0.348   3.814   0.410 -0.4158  0.2720 -0.1508
 1579WAT     H1 6390   0.273   3.874   0.404 -0.8527 -0.3023 -0.4583
 1579WAT     H2 6391   0.344   3.781   0.500  0.1474  1.1130  0.1915
 1579WAT    EPW 6392   0.337   3.818   0.421 -0.3991  0.3072 -0.1462
 1580WAT      O 6393   2.142   2.983   0.869  0.2228 -0.0735 -0.1930
 1580WAT     H1 6394   2.111   3.033   0.945  1.3737 -0.7346  0.7412
 1580WAT     H2 6395   2.210   3.037   0.831  1.4508 -0.8585  0.8031
 1580WAT    EPW 6396   2.147   2.997   0.874  0.5366 -0.2642  0.0616
 1581WAT      O 6397   0.583   2.451   3.486 -0.2953  0.0997  0.3743
 1581WAT     H1 6398   0.501   2.467   3.532 -1.6610  0.5472 -2.0495
 1581WAT     H2 6399   0.559   2.451   3.394  2.3642 -0.3089 -0.4004
 1581WAT    EPW 6400   0.569   2.453   3.480 -0.1246  0.1049 -0.0475
 1582WAT      O 6401   1.680   3.247   2.325  0.7502 -0.8617  0.7026
 1582WAT     H1 6402   1.613   3.293   2.376  0.1871 -2.3349  1.3446
 1582WAT     H2 6403   1.631   3.202   2.256  1.2338 -0.8988  0.3804
 1582WAT    EPW 6404   1.665   3.247   2.323  0.7397 -1.0609  0.7448
 1583WAT      O 6405   2.039   0.839   2.817  0.1626  0.6005  0.1414
 1583WAT     H1 6406   1.974   0.814   2.884  0.4079 -0.4230  0.0205
 1583WAT     H2 6407   2.123   0.817   2.856  0.2317 -1.8426 -1.1884
 1583WAT    EPW 6408   2.041   0.833   2.831  0.2041  0.1433 -0.0500
 1584WAT      O 6409   2.881   2.440   1.875 -0.0853  0.1462 -0.1035
 1584WAT     H1 6410   2.929   2.410   1.798 -2.4063 -1.7210 -0.9577
 1584WAT     H2 6411   2.835   2.362   1.906 -1.3910  1.4849  1.5145
 1584WAT    EPW 6412   2.881   2.425   1.869 -0.5637  0.0765 -0.0028
 1585WAT      O 6413   1.095   2.378   1.233  0.1581 -0.3024 -0.5777
 1585WAT     H1 6414   1.189   2.381   1.215  0.2193 -0.8247 -0.3562
 1585WAT     H2 6415   1.057   2.443   1.174  0.5490 -0.8111 -1.3996
 1585WAT    EPW 6416   1.102   2.387   1.223  0.2178 -0.4384 -0.6569
 1586WAT      O 6417   2.415   4.361   3.684 -0.3276  0.2090  0.0074
 1586WAT     H1 6418   2.483   4.426   3.703  1.1655 -1.4259  0.5751
 1586WAT     H2 6419   2.460   4.276   3.694 -2.4930 -0.9439  0.5559
 1586WAT    EPW 6420   2.430   4.358   3.688 -0.4163 -0.1587  0.1547
 1587WAT      O 6421   0.992   3.228   0.538  0.1358 -0.1729 -0.4442
 1587WAT     H1 6422   1.080   3.263   0.527  0.9436 -2.5523 -2.5602
 1587WAT     H2 6423   1.005   3.134   0.552 -2.0504 -0.4264  0.2309
 1587WAT    EPW 6424   1.005   3.220   0.538 -0.0460 -0.5202 -0.6343
 1588WAT      O 6425   1.018   3.624   3.333  0.1876  0.2144 -0.0840
 1588WAT     H1 6426   1.058   3.595   3.415  1.4848 -0.5219 -0.9318
 1588WAT     H2 6427   0.955   3.556   3.311  2.3338 -1.4596 -1.4274
 1588WAT    EPW 6428   1.015   3.611   3.341  0.6417 -0.1035 -0.3730
 1589WAT      O 6429   0.681   3.593   3.455 -0.0636 -0.0651  0.0302
 1589WAT     H1 6430   0.627   3.636   3.389  0.4476  0.0499 -0.3189
 1589WAT     H2 6431   0.751   3.656   3.474  0.6816 -0.7177 -0.4694
 1589WAT    EPW 6432   0.683   3.607   3.449  0.1021 -0.1360 -0.0817
 1590WAT      O 6433   2.312   0.834   0.684 -0.2906 -0.1838 -0.8969
 1590WAT     H1 6434   2.344   0.748   0.711  0.3787 -0.1055 -1.3977
 1590WAT     H2 6435   2.217   0.824   0.682 -0.4508 -0.0241  1.9647
 1590WAT    EPW 6436   2.304   0.821   0.687 -0.2234 -0.1524 -0.5855
 1591WAT      O 6437   2.129   0.028   3.396  0.4667  0.3428 -0.2250
 1591WAT     H1 6438   2.050   0.080   3.383 -0.3245 -1.0052 -1.0817
 1591WAT     H2 6439   2.107  -0.032   3.467  0.6981 -0.0541 -0.4814
 1591WAT    EPW 6440   2.116   0.027   3.403  0.3929  0.1126 -0.3718
 1592WAT      O 6441   0.606   1.522   2.307  0.1915  0.3198  0.5035
 1592WAT     H1 6442   0.574   1.474   2.231 -2.2966  1.8981  0.4626
 1592WAT     H2 6443   0.576   1.471   2.382 -2.8924  1.8911  0.4724
 1592WAT    EPW 6444   0.598   1.509   2.307 -0.5434  0.7352  0.4940
 1593WAT      O 6445   2.503   2.159   3.261  0.3909  0.1048  0.3077
 1593WAT     H1 6446   2.500   2.188   3.352  0.0396  2.6783 -0.4310
 1593WAT     H2 6447   2.413   2.138   3.239  0.4230 -0.1976  0.4708
 1593WAT    EPW 6448   2.491   2.160   3.270  0.3488  0.4044  0.2318
 1594WAT      O 6449   0.136   1.278   1.996  0.0019 -0.1633 -0.2881
 1594WAT     H1 6450   0.097   1.199   2.035 -0.2223  1.1029  2.3217
 1594WAT     H2 6451   0.155   1.334   2.072 -0.8930  2.7644 -2.0594
 1594WAT    EPW 6452   0.133   1.275   2.011 -0.1457  0.3899 -0.1775
 1595WAT      O 6453   2.481   4.354   3.129  0.2969  0.8447  0.0700
 1595WAT     H1 6454   2.392   4.340   3.096 -0.4398  0.3137  2.0936
 1595WAT     H2 6455   2.472   4.347   3.224  2.6141  0.1756  0.3081
 1595WAT    EPW 6456   2.468   4.351   3.137  0.5054  0.6864  0.3683
 1596WAT      O 6457   1.886   1.365   0.105 -0.0721  0.2603 -0.4209
 1596WAT     H1 6458   1.837   1.398   0.180  1.3594 -1.1347  1.1910
 1596WAT     H2 6459   1.937   1.441   0.076  2.0339  0.0031  2.2802
 1596WAT    EPW 6460   1.886   1.380   0.111  0.3944  0.0424  0.1480
 1597WAT      O 6461   1.407   3.581   1.868  0.1021 -0.1850 -0.4118
 1597WAT     H1 6462   1.365   3.666   1.857 -0.7912 -0.4940  0.5084
 1597WAT     H2 6463   1.403   3.563   1.962  1.0282 -0.8732 -0.4867
 1597WAT    EPW 6464   1.401   3.590   1.879  0.1064 -0.3165 -0.3003
 1598WAT      O 6465   2.590   1.186   0.797 -0.2327  0.2809 -0.3605
 1598WAT     H1 6466   2.528   1.206   0.727  0.1148  1.8514 -0.2443
 1598WAT     H2 6467   2.564   1.243   0.869 -0.8150 -1.5662  0.9729
 1598WAT    EPW 6468   2.579   1.196   0.797 -0.2637  0.2444 -0.1693
 1599WAT      O 6469   0.878   3.395   3.765 -0.0381 -0.2339 -0.3963
 1599WAT     H1 6470   0.850   3.350   3.845  2.2380  1.1293  1.2855
 1599WAT     H2 6471   0.849   3.338   3.694 -0.7694 -2.3013  1.4496
 1599WAT    EPW 6472   0.871   3.382   3.766  0.1656 -0.3268  0.0690
 1600WAT      O 6473   1.628   2.111   0.801 -0.1464  0.3124  0.1160
 1600WAT     H1 6474   1.680   2.191   0.795 -0.4553  0.4175 -1.8319
 1600WAT     H2 6475   1.689   2.041   0.779 -0.1961  0.1498  0.4890
 1600WAT    EPW 6476   1.643   2.112   0.797 -0.1937  0.3048 -0.0917
 1601WAT      O 6477   3.105   1.283   1.300 -0.7664  0.2153  0.3492
 1601WAT     H1 6478   3.112   1.200   1.348  2.4012 -0.4980 -1.0282
 1601WAT     H2 6479   3.104   1.256   1.208 -1.0323  1.6878 -0.0985
 1601WAT    EPW 6480   3.106   1.268   1.294 -0.3837  0.3154  0.1085
 1602WAT      O 6481   3.704   3.957   0.282 -0.2720 -0.3952  0.5746
 1602WAT     H1 6482   3.749   3.897   0.222 -1.0603 -1.9768  1.4881
 1602WAT     H2 6483   3.732   3.929   0.369 -1.8248 -0.4457  1.0883
 1602WAT    EPW 6484   3.713   3.945   0.286 -0.5808 -0.6105  0.7628
 1603WAT      O 6485   2.879   0.330   1.760 -0.3397  0.0496 -0.8096
 1603WAT     H1 6486   2.926   0.311   1.678 -1.9524 -0.4464 -1.6690
 1603WAT     H2 6487   2.882   0.426   1.767  0.1501  0.0726 -1.2245
 1603WAT    EPW 6488   2.886   0.341   1.750 -0.4878 -0.0128 -0.9777
 1604WAT      O 6489   0.648   3.555   2.873 -0.1386 -0.0555  0.1469
 1604WAT     H1 6490   0.649   3.581   2.780 -1.0480 -0.9654 -0.1449
 1604WAT     H2 6491   0.618   3.633   2.919 -0.1668  0.2560 -0.3859
 1604WAT    EPW 6492   0.644   3.569   2.867 -0.2623 -0.1344  0.0382
 1605WAT      O 6493   0.016   3.999   1.854 -0.0763  0.4376  0.6234
 1605WAT     H1 6494   0.101   4.019   1.814 -0.4746  1.4964  0.2688
 1605WAT     H2 6495   0.009   3.904   1.848  0.6476  0.4214 -0.2382
 1605WAT    EPW 6496   0.027   3.989   1.848 -0.0334  0.5751  0.4630
 1606WAT      O 6497   2.464   2.914   1.644 -0.0813 -0.2947  0.3113
 1606WAT     H1 6498   2.468   3.007   1.621 -0.0629 -0.6050 -0.9838
 1606WAT     H2 6499   2.539   2.901   1.702 -1.3052  0.9441  2.3125
 1606WAT    EPW 6500   2.474   2.925   1.649 -0.2403 -0.1722  0.4044
 1607WAT      O 6501   2.777   1.888   2.317 -0.1415 -0.0004 -0.1910
 1607WAT     H1 6502   2.779   1.891   2.413  0.2580  0.5265 -0.2150
 1607WAT     H2 6503   2.758   1.796   2.297  2.2875 -0.6926  0.3832
 1607WAT    EPW 6504   2.775   1.876   2.327  0.2316 -0.0222 -0.1184
 1608WAT      O 6505   3.697   3.702   3.701  0.7494 -0.1707 -0.4877
 1608WAT     H1 6506   3.608   3.675   3.679  0.1424 -0.2844  1.8069
 1608WAT     H2 6507   3.747   3.620   3.708  0.1813 -0.4075  1.3973
 1608WAT    EPW 6508   3.692   3.688   3.699  0.5944 -0.2170  0.0635
 1609WAT      O 6509   3.592   2.061   1.702  0.1996  0.3869 -0.1697
 1609WAT     H1 6510   3.575   2.023   1.615  2.2556 -0.7658 -0.1339
 1609WAT     H2 6511   3.643   2.140   1.683 -0.2824  0.7305 -0.0464
 1609WAT    EPW 6512   3.596   2.066   1.688  0.4072  0.2802 -0.1487
 1610WAT      O 6513   3.018   2.428   0.973  0.5954  0.3179  0.0330
 1610WAT     H1 6514   2.956   2.487   0.931  0.0346 -0.3874 -0.1494
 1610WAT     H2 6515   3.041   2.365   0.905 -0.3839 -0.8849  0.7646
 1610WAT    EPW 6516   3.013   2.427   0.959  0.3923  0.0662  0.1054
 1611WAT      O 6517   3.284   0.610   3.120  0.2850 -0.3147  0.6214
 1611WAT     H1 6518   3.253   0.701   3.123  1.8119  0.2188  1.8739
 1611WAT     H2 6519   3.242   0.573   3.043 -1.4709  1.0410  0.8456
 1611WAT    EPW 6520   3.275   0.617   3.111  0.2548 -0.0655  0.8162
 1612WAT      O 6521   1.105   2.420   1.566 -0.4622  0.1525  0.3529
 1612WAT     H1 6522   1.091   2.423   1.471 -0.7555  0.3452  0.4007
 1612WAT     H2 6523   1.055   2.494   1.600  0.8119  0.9563  0.5302
 1612WAT    EPW 6524   1.096   2.430   1.558 -0.3329  0.2839  0.3826
 1613WAT      O 6525   1.790   3.471   3.798  0.3009  0.7505 -0.2865
 1613WAT     H1 6526   1.764   3.381   3.817  2.3244  0.5203  1.9049
 1613WAT     H2 6527   1.866   3.462   3.741  1.5567  0.9050  1.2718
 1613WAT    EPW 6528   1.797   3.458   3.793  0.7334  0.7406  0.2081
 1614WAT      O 6529   2.514   1.445   3.533 -0.0285  0.1040  0.3975
 1614WAT     H1 6530   2.425   1.482   3.537  0.1096  0.4561  0.2445
 1614WAT     H2 6531   2.568   1.508   3.581  0.5845  1.2261 -1.6386
 1614WAT    EPW 6532   2.509   1.459   3.540  0.0706  0.2984  0.1088
 1615WAT      O 6533   1.018   1.531   1.655 -0.0102  0.2148 -0.0717
 1615WAT     H1 6534   1.063   1.465   1.707 -1.3976 -1.6235 -1.0742
 1615WAT     H2 6535   1.063   1.613   1.676  1.3122 -0.9024  1.7796
 1615WAT    EPW 6536   1.030   1.533   1.665 -0.0188 -0.1750  0.0403
 1616WAT      O 6537   0.981   0.802   0.906 -0.0934 -0.3989  0.0017
 1616WAT     H1 6538   0.978   0.853   0.824  2.6125 -0.1314 -0.0445
 1616WAT     H2 6539   0.940   0.719   0.884 -1.2702  0.4049 -1.0026
 1616WAT    EPW 6540   0.975   0.798   0.892  0.1083 -0.2576 -0.1369
 1617WAT      O 6541   1.191   1.745   3.576 -0.0105  0.3558  0.4600
 1617WAT     H1 6542   1.194   1.792   3.493 -2.8019  1.8657  1.0841
 1617WAT     H2 6543   1.246   1.797   3.635 -1.5615  1.8681  0.6464
 1617WAT    EPW 6544   1.199   1.758   3.573 -0.5833  0.7544  0.5669
 1618WAT      O 6545   2.527   2.607   0.328  0.0343 -0.1885  0.0549
 1618WAT     H1 6546   2.532   2.519   0.292 -1.2261 -0.0104 -0.6221
 1618WAT     H2 6547   2.515   2.663   0.251 -1.2124  0.3551  0.6077
 1618WAT    EPW 6548   2.526   2.603   0.313 -0.2964 -0.0933  0.0385
 1619WAT      O 6549   0.929   0.960   3.193 -0.0987 -0.4314  0.1048
 1619WAT     H1 6550   0.862   0.895   3.214  0.5222 -0.9907  0.3815
 1619WAT     H2 6551   0.884   1.022   3.135 -1.2325 -0.0514  1.3235
 1619WAT    EPW 6552   0.914   0.960   3.188 -0.1663 -0.4551  0.3020
 1620WAT      O 6553   0.640   3.288   2.747 -0.1653  0.1356  0.0582
 1620WAT     H1 6554   0.621   3.374   2.785  1.6379  0.7164 -0.2565
 1620WAT     H2 6555   0.628   3.226   2.819 -2.9736  0.4007 -0.0731
 1620WAT    EPW 6556   0.635   3.291   2.761 -0.2979  0.2472 -0.0006
 1621WAT      O 6557   3.423   4.123   1.445  0.1035 -0.3540  0.8457
 1621WAT     H1 6558   3.385   4.179   1.512  1.2163 -1.5248  2.5203
 1621WAT     H2 6559   3.348   4.094   1.392 -0.6276  1.6291  0.7373
 1621WAT    EPW 6560   3.408   4.126   1.447  0.1538 -0.2469  1.0523
 1622WAT      O 6561   2.614   3.052   1.258  0.3036 -0.0754  0.4408
 1622WAT     H1 6562   2.597   3.142   1.230 -0.1066 -0.4753 -0.6827
 1622WAT     H2 6563   2.526   3.014   1.268  0.4703 -0.7154 -0.4044
 1622WAT    EPW 6564   2.600   3.059   1.255  0.2715 -0.2125  0.1811
 1623WAT      O 6565   1.077   2.620   0.741  0.4724 -0.3833 -0.2565
 1623WAT     H1 6566   1.110   2.631   0.830  1.2323 -0.6395 -0.4978
 1623WAT     H2 6567   1.087   2.527   0.723 -0.6617 -0.5255 -0.2476
 1623WAT    EPW 6568   1.083   2.609   0.750  0.4230 -0.4358 -0.2871
 1624WAT      O 6569   1.067   1.754   0.555 -0.9141  0.1473  0.4170
 1624WAT     H1 6570   1.072   1.755   0.650 -1.0278  1.8555  0.4435
 1624WAT     H2 6571   0.996   1.816   0.534  0.9536  2.0075 -0.8039
 1624WAT    EPW 6572   1.058   1.762   0.564 -0.6827  0.6180  0.2595
 1625WAT      O 6573   1.089   1.491   1.989 -0.1163  0.0332  0.3836
 1625WAT     H1 6574   0.995   1.477   1.999 -0.3510  2.0720  1.4585
 1625WAT     H2 6575   1.126   1.466   2.074  0.2235 -0.0047  0.2279
 1625WAT    EPW 6576   1.082   1.486   2.001 -0.1025  0.2971  0.5048
 1626WAT      O 6577   3.118   1.162   1.041 -0.3620 -0.3070 -0.0916
 1626WAT     H1 6578   3.139   1.230   0.977 -2.0840 -0.0575 -0.4230
 1626WAT     H2 6579   3.143   1.081   0.997 -3.0767 -0.3032 -1.8621
 1626WAT    EPW 6580   3.124   1.161   1.026 -0.9472 -0.2736 -0.3688
 1627WAT      O 6581   2.982   3.583   2.752  0.6365  0.6935 -0.3687
 1627WAT     H1 6582   3.017   3.538   2.675  1.1925 -0.6742  0.6331
 1627WAT     H2 6583   2.978   3.675   2.727 -0.4424  0.1414 -2.4879
 1627WAT    EPW 6584   2.986   3.589   2.739  0.5675  0.4403 -0.5161
 1628WAT      O 6585   3.279   2.235   0.137 -0.8185  0.0444  0.2763
 1628WAT     H1 6586   3.291   2.176   0.212  0.5945  0.5506  0.4843
 1628WAT     H2 6587   3.331   2.312   0.159 -1.8238  0.9617 -0.4452
 1628WAT    EPW 6588   3.287   2.237   0.150 -0.7648  0.2321  0.2086
 1629WAT      O 6589   1.017   4.099   2.939  0.2793 -0.0896  0.6281
 1629WAT     H1 6590   0.995   4.077   3.030  1.1730 -0.4053  0.7734
 1629WAT     H2 6591   1.056   4.020   2.903 -1.2825 -0.4115 -0.4649
 1629WAT    EPW 6592   1.019   4.086   2.946  0.1912 -0.1737  0.5031
 1630WAT      O 6593   0.290   1.509   2.134 -0.0104  0.0535  0.4844
 1630WAT     H1 6594   0.263   1.580   2.192  1.3887  0.9356  0.1035
 1630WAT     H2 6595   0.294   1.548   2.047 -0.7953 -0.9222 -0.0153
 1630WAT    EPW 6596   0.287   1.523   2.131  0.0706  0.0412  0.3682
 1631WAT      O 6597   0.951   1.141   1.068  0.2732  0.1251 -0.3361
 1631WAT     H1 6598   0.911   1.226   1.048 -0.3295 -0.1291 -0.2281
 1631WAT     H2 6599   1.033   1.142   1.019  0.0498  0.5806 -0.7135
 1631WAT    EPW 6600   0.957   1.152   1.059  0.1642  0.1516 -0.3716
 1632WAT      O 6601   3.155   1.567   0.934 -0.0984  0.3109  0.0865
 1632WAT     H1 6602   3.212   1.493   0.914  0.0918  0.0839  1.3884
 1632WAT     H2 6603   3.073   1.527   0.964 -0.0566  0.6112  0.6273
 1632WAT    EPW 6604   3.152   1.552   0.936 -0.0678  0.3206  0.3296
 1633WAT      O 6605   1.695   2.888   3.234  0.5430  0.1179  0.4308
 1633WAT     H1 6606   1.717   2.928   3.150 -0.7721  0.2087  0.1203
 1633WAT     H2 6607   1.634   2.948   3.275 -0.7721 -1.1060  0.3395
 1633WAT    EPW 6608   1.690   2.901   3.228  0.1961 -0.0315  0.3778
 1634WAT      O 6609   0.031   2.223   2.624  0.1847 -0.2593 -0.0683
 1634WAT     H1 6610  -0.034   2.153   2.617 -1.2354  1.0200 -0.1045
 1634WAT     H2 6611   0.061   2.237   2.534  0.1473 -0.5265 -0.1225
 1634WAT    EPW 6612   0.026   2.216   2.611 -0.0075 -0.1258 -0.0802
 1635WAT      O 6613   0.550   0.445   2.766 -0.1513  0.0123 -0.5401
 1635WAT     H1 6614   0.533   0.354   2.741 -0.3733  0.1587 -0.9331
 1635WAT     H2 6615   0.487   0.463   2.836 -0.3218 -0.0381 -0.6808
 1635WAT    EPW 6616   0.540   0.435   2.772 -0.2030  0.0250 -0.6105
 1636WAT      O 6617   1.406   2.879   0.383 -0.2046 -0.1561 -0.6305
 1636WAT     H1 6618   1.363   2.870   0.298 -1.5118  1.7860 -0.2184
 1636WAT     H2 6619   1.336   2.865   0.447  0.2221  0.8372  0.0780
 1636WAT    EPW 6620   1.391   2.876   0.380 -0.3208  0.2311 -0.4827
 1637WAT      O 6621   0.103   2.914   3.299 -0.2775 -0.2477 -0.3662
 1637WAT     H1 6622   0.130   2.992   3.251 -1.6381  0.6168  0.2018
 1637WAT     H2 6623   0.175   2.896   3.359 -1.0015  2.1562  1.3329
 1637WAT    EPW 6624   0.116   2.922   3.300 -0.5524  0.1834 -0.0672
 1638WAT      O 6625   0.742   0.403   1.463  0.5392  0.5427  0.4465
 1638WAT     H1 6626   0.677   0.468   1.490 -0.0758  0.3453 -0.5091
 1638WAT     H2 6627   0.823   0.430   1.506 -0.5795 -0.3574  3.4055
 1638WAT    EPW 6628   0.744   0.415   1.472  0.3106  0.3980  0.7108
 1639WAT      O 6629   0.943   0.280   3.592  0.1063 -0.5128 -0.2366
 1639WAT     H1 6630   1.008   0.306   3.657  1.8580 -1.1483 -1.6503
 1639WAT     H2 6631   0.907   0.363   3.559  0.5090 -0.1393  0.2609
 1639WAT    EPW 6632   0.946   0.295   3.596  0.3904 -0.5473 -0.3574
 1640WAT      O 6633   3.697   3.170   1.610  0.0118  0.5732 -0.1555
 1640WAT     H1 6634   3.643   3.246   1.587  0.0654  0.9381  0.8738
 1640WAT     H2 6635   3.740   3.146   1.528 -2.5244 -0.4167 -1.3234
 1640WAT    EPW 6636   3.696   3.177   1.596 -0.3157  0.4908 -0.1738
 1641WAT      O 6637   2.311   2.033   1.901  0.3353 -0.0895  0.1422
 1641WAT     H1 6638   2.278   1.945   1.920  1.8107 -0.6315  0.3002
 1641WAT     H2 6639   2.251   2.091   1.947  0.1866 -1.0886  1.2725
 1641WAT    EPW 6640   2.299   2.029   1.909  0.5103 -0.2928  0.3121
 1642WAT      O 6641   2.627   1.672   3.725  0.1335 -0.2595  0.0604
 1642WAT     H1 6642   2.586   1.610   3.786 -0.1782  0.6244  0.7807
 1642WAT     H2 6643   2.711   1.694   3.767  0.7202 -0.9904 -0.7134
 1642WAT    EPW 6644   2.633   1.667   3.739  0.1698 -0.2393  0.0533
 1643WAT      O 6645   0.545   0.166   1.765  1.0646 -0.1591  0.0581
 1643WAT     H1 6646   0.594   0.091   1.799  1.2219  0.7429  1.9343
 1643WAT     H2 6647   0.461   0.163   1.810  0.8099  0.4174 -0.3611
 1643WAT    EPW 6648   0.541   0.156   1.775  1.0517  0.0359  0.2502
 1644WAT      O 6649   0.830   2.850   0.390  0.3725  0.3461 -0.0399
 1644WAT     H1 6650   0.787   2.788   0.331 -0.1300  0.0319  0.6454
 1644WAT     H2 6651   0.918   2.861   0.352  0.2204 -0.2132 -0.5762
 1644WAT    EPW 6652   0.836   2.843   0.377  0.2862  0.2309 -0.0203
 1645WAT      O 6653   0.883   3.865   3.402  0.2423 -0.0106 -0.0495
 1645WAT     H1 6654   0.943   3.803   3.360  0.1028  0.0713 -0.3698
 1645WAT     H2 6655   0.941   3.926   3.448  0.3848 -0.2951  0.1541
 1645WAT    EPW 6656   0.899   3.865   3.402  0.2427 -0.0373 -0.0649
 1646WAT      O 6657   3.653   0.824   0.384 -0.2547  0.2941 -0.2763
 1646WAT     H1 6658   3.740   0.793   0.409 -1.4280 -1.8937  1.3478
 1646WAT     H2 6659   3.594   0.790   0.451 -2.3756  1.9034 -1.1951
 1646WAT    EPW 6660   3.657   0.815   0.396 -0.6892  0.2178 -0.1833
 1647WAT      O 6661   3.563   0.368   0.153 -0.7661 -0.5178  0.3157
 1647WAT     H1 6662   3.625   0.352   0.223 -1.7249  0.6818  1.4832
 1647WAT     H2 6663   3.485   0.403   0.196 -0.9243  1.5281 -1.4289
 1647WAT    EPW 6664   3.561   0.371   0.168 -0.9134 -0.0897  0.2396
 1648WAT      O 6665   1.740   1.220   2.054  0.5145 -0.0859  0.1381
 1648WAT     H1 6666   1.785   1.136   2.053 -0.0828 -0.4239  0.8023
 1648WAT     H2 6667   1.671   1.210   2.120 -0.9632  0.2023 -1.3093
 1648WAT    EPW 6668   1.737   1.208   2.063  0.2408 -0.0924  0.0348
 1649WAT      O 6669   3.144   2.502   1.224  0.3231 -0.3219 -0.4845
 1649WAT     H1 6670   3.065   2.519   1.276  0.5889 -1.4656  0.3321
 1649WAT     H2 6671   3.113   2.452   1.149 -0.1838  2.0187 -1.9212
 1649WAT    EPW 6672   3.129   2.498   1.221  0.2913 -0.1641 -0.5663
 1650WAT      O 6673   2.870   1.723   1.646 -0.6353  0.3325  0.0287
 1650WAT     H1 6674   2.909   1.645   1.607 -0.4321 -0.8274  2.3605
 1650WAT     H2 6675   2.932   1.793   1.626  0.3486 -0.5674 -0.1798
 1650WAT    EPW 6676   2.883   1.722   1.639 -0.4787  0.0608  0.3087
 1651WAT      O 6677   3.233   3.834   1.280  0.1271  0.5162  0.3486
 1651WAT     H1 6678   3.308   3.825   1.220  0.7085 -0.1459  1.1531
 1651WAT     H2 6679   3.259   3.785   1.358 -1.9124 -1.3417 -0.0681
 1651WAT    EPW 6680   3.246   3.826   1.282 -0.0653  0.1838  0.3998
 1652WAT      O 6681   0.070   1.037   3.806  0.5726 -0.1488  0.2068
 1652WAT     H1 6682   0.076   1.130   3.785 -2.4288  0.8071  2.7385
 1652WAT     H2 6683   0.154   1.015   3.847  0.4982  2.1600  1.7623
 1652WAT    EPW 6684   0.082   1.046   3.809  0.1669  0.2817  0.7459
 1653WAT      O 6685   0.610   3.574   0.173  0.5401 -0.2837  0.0975
 1653WAT     H1 6686   0.540   3.529   0.126  1.1691  0.9952 -2.2067
 1653WAT     H2 6687   0.570   3.657   0.200  1.3030  0.8362 -1.9868
 1653WAT    EPW 6688   0.595   3.579   0.170  0.7237  0.0327 -0.4813
 1654WAT      O 6689   2.639   0.887   1.362 -0.1124 -0.2747  0.0070
 1654WAT     H1 6690   2.593   0.807   1.388  0.1099 -0.1782  0.7011
 1654WAT     H2 6691   2.727   0.858   1.339  0.1274 -0.1583  0.7698
 1654WAT    EPW 6692   2.644   0.873   1.362 -0.0515 -0.2466  0.1991
 1655WAT      O 6693   1.801   4.156   2.070  0.2035  0.0401 -0.5114
 1655WAT     H1 6694   1.814   4.224   2.136 -0.2681 -0.9274  0.5970
 1655WAT     H2 6695   1.709   4.130   2.080  0.1716 -0.2411 -1.4410
 1655WAT    EPW 6696   1.790   4.162   2.080  0.1371 -0.1246 -0.4878
 1656WAT      O 6697   3.446   1.231   0.233  0.9346 -0.1944  0.4369
 1656WAT     H1 6698   3.503   1.246   0.309  1.3964 -3.6444  0.9411
 1656WAT     H2 6699   3.367   1.192   0.271 -0.1122  0.8190 -0.6335
 1656WAT    EPW 6700   3.443   1.228   0.248  0.8574 -0.5158  0.3622
 1657WAT      O 6701   0.232   4.138   3.175  0.3600  0.2043  0.4968
 1657WAT     H1 6702   0.226   4.225   3.136  3.0532  0.8133  1.2140
 1657WAT     H2 6703   0.161   4.136   3.239 -0.5710  1.3448 -0.4445
 1657WAT    EPW 6704   0.222   4.149   3.178  0.5924  0.4350  0.4672
 1658WAT      O 6705   0.309   3.625   2.502  0.1497 -0.3360  0.1443
 1658WAT     H1 6706   0.376   3.606   2.437  0.2261 -0.7418  0.3426
 1658WAT     H2 6707   0.244   3.679   2.455  0.8619  0.4895  0.0867
 1658WAT    EPW 6708   0.309   3.630   2.488  0.2537 -0.2807  0.1629
 1659WAT      O 6709   2.119   2.176   2.516  0.2325  0.6420  0.6566
 1659WAT     H1 6710   2.024   2.166   2.522  0.1420  0.7331 -0.4294
 1659WAT     H2 6711   2.148   2.186   2.607 -0.5165 -1.8918  1.2534
 1659WAT    EPW 6712   2.110   2.176   2.529  0.1218  0.3198  0.5921
 1660WAT      O 6713   3.257   0.650   1.001  0.5993  0.3467  0.3531
 1660WAT     H1 6714   3.260   0.713   0.929  2.0036 -0.4167 -0.3025
 1660WAT     H2 6715   3.329   0.676   1.058  1.6745 -1.0680 -0.3084
 1660WAT    EPW 6716   3.267   0.661   0.999  0.9263  0.0595  0.1794
 1661WAT      O 6717   2.397   3.047   0.266  0.3641  0.7391 -0.3939
 1661WAT     H1 6718   2.417   2.966   0.219 -0.1712 -0.3251  1.1339
 1661WAT     H2 6719   2.438   3.035   0.352 -2.6992  0.4653  1.1829
 1661WAT    EPW 6720   2.405   3.035   0.271 -0.1105  0.5627  0.0156
 1662WAT      O 6721   1.494   2.346   1.598  0.0195 -0.1082  0.3578
 1662WAT     H1 6722   1.564   2.302   1.549  0.2805  1.9327 -1.2081
 1662WAT     H2 6723   1.415   2.297   1.574  0.4915 -0.6537 -0.1374
 1662WAT    EPW 6724   1.493   2.334   1.588  0.1162  0.0890  0.0860
 1663WAT      O 6725   2.371   2.677   2.438  0.1640  0.4955  0.2209
 1663WAT     H1 6726   2.277   2.680   2.454  0.3261  0.8976  1.1758
 1663WAT     H2 6727   2.410   2.672   2.525  1.1316  3.1331  0.0459
 1663WAT    EPW 6728   2.364   2.677   2.451  0.3130  0.8964  0.3238
 1664WAT      O 6729   0.393   2.436   0.916  0.1603  0.3213  0.1106
 1664WAT     H1 6730   0.350   2.520   0.906  0.7116  0.7026  0.8158
 1664WAT     H2 6731   0.379   2.412   1.008  2.7139  1.2095  0.8241
 1664WAT    EPW 6732   0.386   2.444   0.927  0.5698  0.4887  0.2977
 1665WAT      O 6733   0.254   4.292   3.760 -0.1219 -0.4071  0.2946
 1665WAT     H1 6734   0.201   4.244   3.696 -0.0720  1.0370 -0.8804
 1665WAT     H2 6735   0.190   4.329   3.821 -0.3370 -0.0536 -0.1440
 1665WAT    EPW 6736   0.238   4.291   3.760 -0.1437 -0.1700  0.0817
 1666WAT      O 6737   1.600   0.540   3.135  0.0980 -0.4134 -0.5688
 1666WAT     H1 6738   1.580   0.596   3.210  0.3818  1.5112 -1.8678
 1666WAT     H2 6739   1.519   0.539   3.084 -0.1609 -1.8809 -0.1787
 1666WAT    EPW 6740   1.587   0.547   3.138  0.1013 -0.3531 -0.6887
 1667WAT      O 6741   0.931   0.252   2.339  0.6010 -0.3571 -0.6494
 1667WAT     H1 6742   0.875   0.280   2.411  0.0443 -1.4731 -0.6180
 1667WAT     H2 6743   0.901   0.304   2.264  0.0446 -0.3807 -0.4530
 1667WAT    EPW 6744   0.919   0.262   2.339  0.4542 -0.5074 -0.6194
 1668WAT      O 6745   1.908   1.362   0.859  0.3023  0.5286 -0.7734
 1668WAT     H1 6746   1.989   1.408   0.839 -0.4885  2.3815 -0.0060
 1668WAT     H2 6747   1.930   1.306   0.934  0.8059  1.3131 -0.3158
 1668WAT    EPW 6748   1.921   1.360   0.867  0.2644  0.8765 -0.6118
 1669WAT      O 6749   1.640   2.708   0.410  0.5689  0.1218  0.0574
 1669WAT     H1 6750   1.557   2.751   0.389  0.5070  1.2810  2.3892
 1669WAT     H2 6751   1.702   2.780   0.423  1.0234 -0.5399  1.8624
 1669WAT    EPW 6752   1.637   2.724   0.409  0.6207  0.1874  0.6030
 1670WAT      O 6753   3.645   1.808   2.915 -0.0883 -0.2417 -0.4246
 1670WAT     H1 6754   3.681   1.797   3.003 -1.2774  3.5746  0.7170
 1670WAT     H2 6755   3.721   1.805   2.857  1.1135  0.2329  1.0754
 1670WAT    EPW 6756   3.659   1.806   2.919 -0.0866  0.3242 -0.0762
 1671WAT      O 6757   2.472   4.292   3.408 -0.6323 -0.3569  0.0210
 1671WAT     H1 6758   2.409   4.231   3.445  0.2912  0.0986  2.6036
 1671WAT     H2 6759   2.473   4.366   3.470  2.4269 -0.3957  0.1780
 1671WAT    EPW 6760   2.464   4.294   3.421 -0.1070 -0.3019  0.3824
 1672WAT      O 6761   3.124   3.594   3.052  0.5486 -0.2408  0.0406
 1672WAT     H1 6762   3.138   3.535   2.977  1.7520  1.6689 -1.3330
 1672WAT     H2 6763   3.042   3.564   3.091  0.3570 -1.8849 -1.4929
 1672WAT    EPW 6764   3.115   3.582   3.047  0.6821 -0.2058 -0.3428
 1673WAT      O 6765   1.728   1.232   3.295  0.4211 -0.1129  0.7680
 1673WAT     H1 6766   1.727   1.232   3.391  0.6697 -0.2460  0.7717
 1673WAT     H2 6767   1.636   1.232   3.270  0.3121 -2.1542  1.0093
 1673WAT    EPW 6768   1.716   1.232   3.305  0.4395 -0.3997  0.8003
 1674WAT      O 6769   3.263   3.753   1.813 -0.1475 -0.3883 -0.3362
 1674WAT     H1 6770   3.224   3.666   1.824  0.3544 -0.4321  1.6128
 1674WAT     H2 6771   3.338   3.739   1.756  0.0432 -1.3042  0.1208
 1674WAT    EPW 6772   3.268   3.740   1.807 -0.0561 -0.5149 -0.0189
 1675WAT      O 6773   2.687   2.614   3.730 -0.5159 -0.0106 -0.1657
 1675WAT     H1 6774   2.722   2.699   3.757 -1.3088  0.1854  0.2879
 1675WAT     H2 6775   2.592   2.623   3.741 -1.0201  0.3842 -3.8112
 1675WAT    EPW 6776   2.679   2.627   3.735 -0.6869  0.0673 -0.5867
 1676WAT      O 6777   1.196   3.132   1.241  0.3218  0.0666  0.1980
 1676WAT     H1 6778   1.162   3.044   1.224  1.0135  0.0203 -1.1293
 1676WAT     H2 6779   1.288   3.127   1.214  0.7451  0.8246  1.4431
 1676WAT    EPW 6780   1.204   3.120   1.235  0.4688  0.1605  0.1871
 1677WAT      O 6781   1.639   0.244   3.197  0.6780 -0.5928  0.5972
 1677WAT     H1 6782   1.569   0.235   3.132 -1.3586 -1.6439  2.7762
 1677WAT     H2 6783   1.673   0.332   3.183 -1.6547  0.2892 -0.0837
 1677WAT    EPW 6784   1.634   0.255   3.187  0.1017 -0.6151  0.7948
 1678WAT      O 6785   0.252   3.123   1.163 -0.4184  0.5408  0.1741
 1678WAT     H1 6786   0.231   3.182   1.235  0.4385  0.7809  0.2450
 1678WAT     H2 6787   0.289   3.181   1.095 -1.6457  0.3895 -0.6608
 1678WAT    EPW 6788   0.254   3.139   1.163 -0.4672  0.5525  0.0734
 1679WAT      O 6789   1.341   1.897   3.734  0.4087  0.3304  0.3715
 1679WAT     H1 6790   1.394   1.964   3.691  1.4010  0.4899  1.7776
 1679WAT     H2 6791   1.360   1.908   3.827  0.2158 -1.5792  0.6735
 1679WAT    EPW 6792   1.351   1.908   3.740  0.5141  0.0996  0.5967
 1680WAT      O 6793   2.657   3.270   2.916  0.1608 -0.0524 -0.8643
 1680WAT     H1 6794   2.675   3.364   2.913 -1.0519  0.5486  3.3165
 1680WAT     H2 6795   2.716   3.237   2.984 -0.5601 -1.9563 -1.1143
 1680WAT    EPW 6796   2.667   3.278   2.925 -0.0942 -0.2243 -0.3459
 1681WAT      O 6797   1.852   2.304   0.762  0.4967 -0.0775  0.5227
 1681WAT     H1 6798   1.883   2.286   0.851  0.5532  0.9687  0.7285
 1681WAT     H2 6799   1.842   2.399   0.759  1.4122  0.0016 -0.8989
 1681WAT    EPW 6800   1.855   2.314   0.774  0.6249  0.0709  0.3623
 1682WAT      O 6801   3.376   4.022   3.010 -0.0405  0.4566 -0.2621
 1682WAT     H1 6802   3.310   4.066   2.957 -1.1713 -0.3248  0.4693
 1682WAT     H2 6803   3.373   4.066   3.095  1.0576  1.0326 -0.4917
 1682WAT    EPW 6804   3.367   4.034   3.014 -0.0448  0.4295 -0.1959
 1683WAT      O 6805   2.208   0.852   0.381 -0.5150  0.0369 -0.4407
 1683WAT     H1 6806   2.148   0.919   0.413  0.3911  0.3618  0.5915
 1683WAT     H2 6807   2.283   0.855   0.440 -0.3540 -1.7404 -0.4868
 1683WAT    EPW 6808   2.210   0.861   0.393 -0.3743 -0.1546 -0.3106
 1684WAT      O 6809   0.782   2.188   0.219 -0.0189 -0.0184 -0.1298
 1684WAT     H1 6810   0.690   2.209   0.235 -0.5884 -1.6998 -0.9891
 1684WAT     H2 6811   0.783   2.147   0.132  1.6828  0.7827 -0.5485
 1684WAT    EPW 6812   0.770   2.186   0.210  0.1305 -0.1345 -0.2984
 1685WAT      O 6813   3.342   3.453   1.745  0.1017 -0.0744  0.2222
 1685WAT     H1 6814   3.381   3.444   1.831  0.6759 -1.3947 -0.1546
 1685WAT     H2 6815   3.275   3.384   1.742  1.2113 -1.1649 -0.9545
 1685WAT    EPW 6816   3.338   3.443   1.756  0.3237 -0.3924  0.0173
 1686WAT      O 6817   1.360   2.103   1.729 -0.0817 -0.3948  0.1578
 1686WAT     H1 6818   1.387   2.011   1.727  1.0687 -0.1129  1.2225
 1686WAT     H2 6819   1.273   2.101   1.770  0.8780 -0.8673  2.3252
 1686WAT    EPW 6820   1.352   2.091   1.734  0.1966 -0.4200  0.5841
 1687WAT      O 6821   2.875   2.126   0.357 -0.2554  0.3589  0.2032
 1687WAT     H1 6822   2.913   2.192   0.415 -0.2842  0.0373  0.5915
 1687WAT     H2 6823   2.781   2.144   0.359 -0.2524  0.3722  0.2235
 1687WAT    EPW 6824   2.868   2.137   0.365 -0.2588  0.3183  0.2571
 1688WAT      O 6825   0.260   1.625   1.619  0.7528 -0.0676 -0.2234
 1688WAT     H1 6826   0.247   1.628   1.714  0.9097 -1.8406 -0.0965
 1688WAT     H2 6827   0.174   1.641   1.582  0.4447 -0.5522  0.2685
 1688WAT    EPW 6828   0.247   1.627   1.627  0.7329 -0.3653 -0.1418
 1689WAT      O 6829   0.938   2.744   3.341  0.2897 -0.0958 -0.3011
 1689WAT     H1 6830   0.955   2.684   3.414  0.3605  0.5536  0.2291
 1689WAT     H2 6831   1.005   2.812   3.351  0.3458 -0.0446 -1.0217
 1689WAT    EPW 6832   0.949   2.745   3.352  0.3065 -0.0034 -0.3262
 1690WAT      O 6833   3.619   2.730   2.860 -0.3589 -0.3985  0.2521
 1690WAT     H1 6834   3.679   2.785   2.810 -1.1656 -0.5895 -0.9798
 1690WAT     H2 6835   3.599   2.657   2.801 -2.8841  0.3680  0.0098
 1690WAT    EPW 6836   3.624   2.727   2.845 -0.7983 -0.3226  0.0576
 1691WAT      O 6837   2.682   3.236   0.098 -0.4426 -0.4505 -0.1589
 1691WAT     H1 6838   2.687   3.164   0.035 -2.7505  0.3057 -1.3083
 1691WAT     H2 6839   2.614   3.294   0.063  0.6316  1.7980  1.2461
 1691WAT    EPW 6840   2.674   3.235   0.085 -0.6053 -0.0542 -0.1252
 1692WAT      O 6841   3.542   1.609   1.037 -0.1086  0.3206  0.3424
 1692WAT     H1 6842   3.461   1.558   1.028 -1.1926  2.1828 -1.2915
 1692WAT     H2 6843   3.612   1.548   1.014 -1.2067 -0.8061 -0.1275
 1692WAT    EPW 6844   3.540   1.594   1.033 -0.3964  0.4176  0.0649
 1693WAT      O 6845   2.199   2.564   1.983 -0.2185 -0.1723  0.0113
 1693WAT     H1 6846   2.261   2.522   2.042  0.2401  0.9279  0.3267
 1693WAT     H2 6847   2.133   2.496   1.965  0.4248 -0.9666  0.6189
 1693WAT    EPW 6848   2.198   2.550   1.988 -0.0732 -0.1320  0.1330
 1694WAT      O 6849   1.918   2.907   0.706  0.4309  0.0596  0.3518
 1694WAT     H1 6850   1.856   2.979   0.718 -0.0738 -0.6343  2.1545
 1694WAT     H2 6851   1.996   2.934   0.755  1.3860  0.6437 -1.3795
 1694WAT    EPW 6852   1.920   2.920   0.714  0.4903  0.0451  0.3612
 1695WAT      O 6853   0.485   0.446   3.602  0.7291 -0.2234  0.6742
 1695WAT     H1 6854   0.428   0.370   3.616 -0.0785 -0.3566 -2.5566
 1695WAT     H2 6855   0.431   0.521   3.624  0.8194 -0.4836  1.8338
 1695WAT    EPW 6856   0.470   0.446   3.607  0.6345 -0.2753  0.4011
 1696WAT      O 6857   3.309   4.275   1.731 -0.4100  0.1302  0.3822
 1696WAT     H1 6858   3.231   4.229   1.701 -0.7554  0.6686  0.4277
 1696WAT     H2 6859   3.362   4.208   1.773  0.1142 -0.6769 -1.4595
 1696WAT    EPW 6860   3.305   4.260   1.733 -0.3864  0.0948  0.1453
 1697WAT      O 6861   0.062   4.338   3.436 -0.0616 -0.0817 -0.1124
 1697WAT     H1 6862  -0.011   4.344   3.375 -0.7191 -0.1846  0.6382
 1697WAT     H2 6863   0.054   4.251   3.475 -0.3178  0.3754  0.9022
 1697WAT    EPW 6864   0.051   4.327   3.433 -0.1821 -0.0350  0.1204
 1698WAT      O 6865   3.047   2.107   3.683 -0.0533 -0.2293  0.2356
 1698WAT     H1 6866   3.024   2.096   3.775 -0.8567 -0.3186  0.0355
 1698WAT     H2 6867   3.083   2.022   3.657  2.5425  0.5388  1.0916
 1698WAT    EPW 6868   3.049   2.094   3.692  0.1831 -0.1398  0.3221
 1699WAT      O 6869   1.867   1.653   2.809 -0.3329  0.2154 -0.2184
 1699WAT     H1 6870   1.842   1.565   2.781 -1.2122  0.6014 -0.6699
 1699WAT     H2 6871   1.792   1.686   2.859  1.2347 -0.5049  2.8625
 1699WAT    EPW 6872   1.854   1.646   2.812 -0.2421  0.1713  0.1284
 1700WAT      O 6873   1.100   1.829   0.106 -0.0932  0.0915 -0.8171
 1700WAT     H1 6874   1.129   1.874   0.185 -0.9589 -1.8646  0.6721
 1700WAT     H2 6875   1.103   1.897   0.038  0.8002  1.7880  0.8285
 1700WAT    EPW 6876   1.104   1.844   0.107 -0.0896  0.0573 -0.4036
 1701WAT      O 6877   0.957   2.073   0.715 -0.0168 -0.5863  0.1394
 1701WAT     H1 6878   1.045   2.064   0.751 -0.2696 -0.9739  0.6609
 1701WAT     H2 6879   0.920   2.150   0.759  0.2797 -0.0328 -0.5456
 1701WAT    EPW 6880   0.963   2.082   0.725 -0.0110 -0.5644  0.1179
 1702WAT      O 6881   1.042   1.092   3.413  0.5615  0.6296  0.0008
 1702WAT     H1 6882   0.971   1.035   3.383 -0.8028  1.2747  1.7866
 1702WAT     H2 6883   1.020   1.178   3.378  1.3502  0.5363 -0.7531
 1702WAT    EPW 6884   1.030   1.095   3.405  0.4856  0.7024  0.1369
 1703WAT      O 6885   0.022   2.308   1.476 -0.1681  0.1382 -0.1554
 1703WAT     H1 6886   0.114   2.284   1.478 -0.1817  0.1238  1.1141
 1703WAT     H2 6887   0.017   2.391   1.522 -0.7395  0.3460 -0.5766
 1703WAT    EPW 6888   0.033   2.316   1.482 -0.2452  0.1637 -0.0435
 1704WAT      O 6889   3.007   1.515   2.836  0.5499 -0.0062  0.3558
 1704WAT     H1 6890   2.996   1.608   2.855 -0.1615  0.0831 -0.3974
 1704WAT     H2 6891   3.100   1.505   2.819  0.4182  0.9310 -1.2053
 1704WAT    EPW 6892   3.018   1.526   2.836  0.4387  0.1291  0.0505
 1705WAT      O 6893   2.814   0.959   1.044  0.4341 -0.1926  0.3043
 1705WAT     H1 6894   2.730   0.933   1.006 -0.1794 -0.4034  1.7264
 1705WAT     H2 6895   2.877   0.951   0.972 -0.9819  1.3161 -1.1928
 1705WAT    EPW 6896   2.811   0.955   1.029  0.1664 -0.0214  0.2944
 1706WAT      O 6897   1.707   1.601   0.838  0.2456 -0.0594 -0.1006
 1706WAT     H1 6898   1.737   1.516   0.805  1.0895  0.6860 -1.3446
 1706WAT     H2 6899   1.774   1.626   0.902 -1.5516 -1.6506  2.6308
 1706WAT    EPW 6900   1.720   1.593   0.842  0.1199 -0.1710  0.0956
 1707WAT      O 6901   2.129   2.264   2.772 -0.3138 -0.1555 -0.4687
 1707WAT     H1 6902   2.053   2.258   2.830  0.2977 -0.1469  0.3610
 1707WAT     H2 6903   2.126   2.352   2.736 -1.2649 -0.4977 -1.2536
 1707WAT    EPW 6904   2.119   2.275   2.775 -0.3586 -0.1995 -0.4628
 1708WAT      O 6905   1.514   3.864   2.646  0.0316 -0.1259 -0.4012
 1708WAT     H1 6906   1.556   3.823   2.571  2.2542  0.5816  0.3810
 1708WAT     H2 6907   1.450   3.799   2.676  0.7529 -1.3819 -1.4843
 1708WAT    EPW 6908   1.511   3.850   2.640  0.4199 -0.1982 -0.4409
 1709WAT      O 6909   1.800   0.795   1.543 -0.4312 -0.2821 -0.2013
 1709WAT     H1 6910   1.887   0.813   1.578 -0.4819 -1.0501  0.3498
 1709WAT     H2 6911   1.802   0.829   1.453 -0.0747  1.1036  0.3088
 1709WAT    EPW 6912   1.812   0.802   1.535 -0.3908 -0.2007 -0.0614
 1710WAT      O 6913   3.400   1.507   0.547 -0.1062 -0.5443  0.7076
 1710WAT     H1 6914   3.345   1.538   0.474  0.2302 -0.6444  0.4076
 1710WAT     H2 6915   3.338   1.492   0.618 -0.4723 -0.6514  0.3736
 1710WAT    EPW 6916   3.384   1.509   0.547 -0.1102 -0.5716  0.6240
 1711WAT      O 6917   0.030   1.695   2.601  0.4141  0.4895 -0.3527
 1711WAT     H1 6918   0.111   1.645   2.607 -0.1747 -0.3492  2.2426
 1711WAT     H2 6919  -0.035   1.631   2.570 -0.2891 -0.4702  2.7423
 1711WAT    EPW 6920   0.032   1.680   2.598  0.2437  0.2523  0.3978
 1712WAT      O 6921   1.120   3.610   2.208 -0.1321 -0.4495  0.1452
 1712WAT     H1 6922   1.095   3.518   2.219 -0.2285 -0.3850  0.4746
 1712WAT     H2 6923   1.096   3.631   2.118  0.1148 -0.8180 -0.0083
 1712WAT    EPW 6924   1.113   3.600   2.198 -0.1123 -0.4896  0.1684
 1713WAT      O 6925   0.921   0.750   2.916  0.1331  0.2123 -0.1192
 1713WAT     H1 6926   1.006   0.733   2.956 -0.0320 -0.4758 -0.0512
 1713WAT     H2 6927   0.858   0.706   2.973 -0.1897 -0.0021 -0.6281
 1713WAT    EPW 6928   0.924   0.742   2.929  0.0688  0.0933 -0.1773
 1714WAT      O 6929   2.511   2.955   3.732 -0.5029  0.5098  0.3174
 1714WAT     H1 6930   2.528   2.910   3.650 -0.8278  0.5991  0.2008
 1714WAT     H2 6931   2.523   3.048   3.712 -0.9922  0.5623  0.2679
 1714WAT    EPW 6932   2.515   2.961   3.719 -0.6103  0.5285  0.2955
 1715WAT      O 6933   1.553   1.275   0.074  0.1598 -0.3402 -0.0344
 1715WAT     H1 6934   1.480   1.333   0.053  1.0931  1.0933  0.5356
 1715WAT     H2 6935   1.619   1.294   0.008  1.2025  0.6589  1.2354
 1715WAT    EPW 6936   1.552   1.285   0.062  0.4204 -0.0194  0.2082
 1716WAT      O 6937   0.390   4.118   0.640 -0.3949  0.2259  0.5495
 1716WAT     H1 6938   0.391   4.103   0.546  0.9975  0.1301  0.5548
 1716WAT     H2 6939   0.382   4.031   0.678 -2.4519  0.3709  0.5378
 1716WAT    EPW 6940   0.389   4.105   0.633 -0.4825  0.2324  0.5487
 1717WAT      O 6941   2.949   0.545   0.466 -0.7609  0.2566 -0.2849
 1717WAT     H1 6942   2.955   0.496   0.548 -0.6807  0.1979 -0.3251
 1717WAT     H2 6943   2.937   0.636   0.493 -0.4146  0.2800 -0.2029
 1717WAT    EPW 6944   2.948   0.550   0.481 -0.7046  0.2520 -0.2794
 1718WAT      O 6945   0.624   0.518   0.415 -0.0912 -0.1056 -0.2617
 1718WAT     H1 6946   0.621   0.613   0.422 -2.8584 -0.0717 -0.8319
 1718WAT     H2 6947   0.607   0.500   0.322 -0.7822 -1.1542  0.0478
 1718WAT    EPW 6948   0.621   0.528   0.404 -0.5473 -0.2394 -0.2961
 1719WAT      O 6949   2.281   0.341   0.824 -0.0490  0.2511  0.2800
 1719WAT     H1 6950   2.247   0.371   0.740  0.3703  0.6397  0.2495
 1719WAT     H2 6951   2.335   0.265   0.802  0.8527  0.9339  0.0778
 1719WAT    EPW 6952   2.284   0.335   0.810  0.1253  0.3924  0.2493
 1720WAT      O 6953   3.261   1.116   3.182 -0.1501  0.1330  0.4434
 1720WAT     H1 6954   3.204   1.044   3.154  0.6334 -0.3532  0.0570
 1720WAT     H2 6955   3.269   1.172   3.105  1.3952 -0.8058 -0.1341
 1720WAT    EPW 6956   3.254   1.114   3.168  0.1570 -0.0549  0.3163
 1721WAT      O 6957   1.114   0.702   0.072 -0.0203  0.0479  0.4544
 1721WAT     H1 6958   1.028   0.702   0.030 -0.4604 -3.6281  0.9466
 1721WAT     H2 6959   1.172   0.743   0.008 -1.3496 -1.7773 -2.1407
 1721WAT    EPW 6960   1.110   0.707   0.058 -0.2537 -0.6777  0.1770
 1722WAT      O 6961   3.035   3.869   2.386 -0.2544  0.1964  0.1678
 1722WAT     H1 6962   3.091   3.883   2.309 -0.5317  0.9446  0.0978
 1722WAT     H2 6963   2.947   3.857   2.350 -0.3107  0.0682  0.3450
 1722WAT    EPW 6964   3.031   3.869   2.371 -0.2984  0.2781  0.1819
 1723WAT      O 6965   1.236   1.513   3.319 -0.0926  0.5244 -0.0947
 1723WAT     H1 6966   1.193   1.537   3.401  0.6051 -0.5481  0.6184
 1723WAT     H2 6967   1.166   1.507   3.255 -1.0856 -1.3783  1.0695
 1723WAT    EPW 6968   1.221   1.515   3.322 -0.1316  0.1320  0.1529
 1724WAT      O 6969   3.444   2.460   0.177  0.2704  0.0333 -0.7384
 1724WAT     H1 6970   3.452   2.449   0.082  2.1872  2.0665 -0.9020
 1724WAT     H2 6971   3.391   2.539   0.187  1.0434  0.4893 -0.1670
 1724WAT    EPW 6972   3.438   2.469   0.166  0.6251  0.3616 -0.6846
 1725WAT      O 6973   0.849   1.735   1.336  0.2239  0.7619  0.1164
 1725WAT     H1 6974   0.773   1.759   1.282  0.4500  0.6622 -0.2452
 1725WAT     H2 6975   0.822   1.758   1.425 -1.0680 -1.2325  0.3115
 1725WAT    EPW 6976   0.835   1.741   1.341  0.0833  0.4857  0.0945
 1726WAT      O 6977   2.888   3.261   1.550 -0.4308 -0.0782  0.3953
 1726WAT     H1 6978   2.834   3.191   1.586 -1.3401  0.7452  0.6645
 1726WAT     H2 6979   2.869   3.337   1.605 -0.6657  0.7983 -0.8490
 1726WAT    EPW 6980   2.879   3.262   1.562 -0.5817  0.1460  0.2667
 1727WAT      O 6981   1.554   2.350   3.193  0.1544 -0.5493  0.5098
 1727WAT     H1 6982   1.649   2.338   3.190  0.1303 -1.0924  1.4030
 1727WAT     H2 6983   1.542   2.443   3.213  0.5189 -0.6271  1.1111
 1727WAT    EPW 6984   1.565   2.361   3.195  0.1993 -0.6312  0.7069
 1728WAT      O 6985   0.894   1.801   0.814 -0.2888 -0.4850 -0.0866
 1728WAT     H1 6986   0.967   1.801   0.876 -1.4811  0.9833  1.4072
 1728WAT     H2 6987   0.845   1.722   0.836 -0.5585 -0.1127  0.7066
 1728WAT    EPW 6988   0.898   1.790   0.825 -0.4816 -0.2422  0.2150
 1729WAT      O 6989   3.061   0.877   0.106 -0.1944  0.2917 -0.1866
 1729WAT     H1 6990   3.132   0.832   0.152 -0.2406  1.2743  0.8817
 1729WAT     H2 6991   3.037   0.818   0.035  1.5289 -0.1768 -0.4214
 1729WAT    EPW 6992   3.067   0.864   0.102  0.0268  0.3595 -0.0767
 1730WAT      O 6993   0.004   3.311   2.081  0.4484  0.0343  0.1959
 1730WAT     H1 6994   0.090   3.311   2.040  0.5582 -0.0391  0.4235
 1730WAT     H2 6995  -0.037   3.230   2.051  0.7683 -0.3322  0.7242
 1730WAT    EPW 6996   0.010   3.300   2.072  0.5050 -0.0237  0.2956
 1731WAT      O 6997   3.569   1.150   2.500  0.0774 -0.2249  0.1515
 1731WAT     H1 6998   3.569   1.055   2.509  0.9354 -0.4184 -1.5309
 1731WAT     H2 6999   3.623   1.182   2.572  0.0051 -1.0345  0.5657
 1731WAT    EPW 7000   3.576   1.142   2.510  0.1810 -0.3572 -0.0158
 1732WAT      O 7001   2.892   1.176   2.198 -0.4760  0.2302 -0.0266
 1732WAT     H1 7002   2.847   1.230   2.263 -1.6683 -0.4684 -0.2334
 1732WAT     H2 7003   2.984   1.181   2.222 -0.8138  0.5769  1.2812
 1732WAT    EPW 7004   2.898   1.184   2.210 -0.6778  0.1838  0.1186
 1733WAT      O 7005   3.475   1.036   1.761 -0.1901  0.3437  0.2133
 1733WAT     H1 7006   3.503   0.964   1.818 -0.0620  0.4770  0.3183
 1733WAT     H2 7007   3.556   1.084   1.743 -0.6256  1.9025  2.1155
 1733WAT    EPW 7008   3.490   1.033   1.766 -0.2306  0.5669  0.4781
 1734WAT      O 7009   0.407   1.910   1.649  0.0396 -0.5207 -0.0896
 1734WAT     H1 7010   0.352   1.831   1.654  0.0698 -0.5661 -0.4236
 1734WAT     H2 7011   0.462   1.895   1.573  0.0104 -0.1536 -0.1830
 1734WAT    EPW 7012   0.407   1.897   1.640  0.0397 -0.4783 -0.1460
 1735WAT      O 7013   2.886   0.792   1.273  0.6352 -0.0779  0.1389
 1735WAT     H1 7014   2.938   0.848   1.330  0.7496 -0.1350  0.0932
 1735WAT     H2 7015   2.870   0.845   1.195 -1.4216  0.8114  1.1154
 1735WAT    EPW 7016   2.891   0.806   1.270  0.3791  0.0319  0.2617
 1736WAT      O 7017   1.215   0.097   3.256  0.2737  0.4010 -0.9637
 1736WAT     H1 7018   1.125   0.065   3.255  0.8983 -1.7229  1.3341
 1736WAT     H2 7019   1.218   0.160   3.328  1.2276 -2.0240  1.3098
 1736WAT    EPW 7020   1.204   0.101   3.265  0.4819 -0.1989 -0.3608
 1737WAT      O 7021   3.161   4.328   1.197  1.2359 -0.4063 -0.3154
 1737WAT     H1 7022   3.181   4.337   1.104 -0.8564  1.8546 -0.6701
 1737WAT     H2 7023   3.093   4.261   1.201 -0.2009  0.9646 -0.7533
 1737WAT    EPW 7024   3.155   4.320   1.185  0.7705  0.0727 -0.4199
 1738WAT      O 7025   3.600   0.380   2.858 -0.7051  0.2441 -0.5844
 1738WAT     H1 7026   3.653   0.394   2.779 -0.8621  1.6232 -0.4735
 1738WAT     H2 7027   3.571   0.468   2.883  1.3801  0.2242  2.4714
 1738WAT    EPW 7028   3.603   0.393   2.851 -0.4508  0.4234 -0.1668
 1739WAT      O 7029   2.265   2.055   2.280  0.1384 -0.2425 -0.1259
 1739WAT     H1 7030   2.242   2.076   2.371  2.4077 -1.0191  0.6878
 1739WAT     H2 7031   2.321   1.978   2.287  0.4345 -0.2500 -2.1958
 1739WAT    EPW 7032   2.269   2.048   2.293  0.4768 -0.3459 -0.2916
 1740WAT      O 7033   0.287   1.904   0.084 -1.0774  0.2645 -0.2226
 1740WAT     H1 7034   0.205   1.945   0.113 -0.4187  0.6201  1.2496
 1740WAT     H2 7035   0.347   1.978   0.073 -0.4600 -0.1306  0.4405
 1740WAT    EPW 7036   0.284   1.919   0.086 -0.9091  0.2593  0.0590
 1741WAT      O 7037   0.959   4.025   2.217  0.1582 -0.1505  0.4174
 1741WAT     H1 7038   0.907   4.067   2.285  0.5563  2.1136 -0.6005
 1741WAT     H2 7039   0.910   4.041   2.136  0.4510 -1.4911 -0.0569
 1741WAT    EPW 7040   0.946   4.033   2.215  0.2494 -0.0287  0.2206
 1742WAT      O 7041   0.030   0.152   1.677  0.8702  0.1723  0.5177
 1742WAT     H1 7042   0.121   0.163   1.648  0.7824 -1.3157 -0.4466
 1742WAT     H2 7043   0.013   0.058   1.667 -1.8518  0.8305 -2.7532
 1742WAT    EPW 7044   0.040   0.141   1.672  0.4996  0.0629 -0.0409
 1743WAT      O 7045   3.139   2.671   1.788 -0.4269  0.0960  0.4230
 1743WAT     H1 7046   3.117   2.661   1.881 -0.0911 -0.7253  0.4243
 1743WAT     H2 7047   3.125   2.764   1.770  3.0367  1.1385  2.2530
 1743WAT    EPW 7048   3.134   2.682   1.798  0.0743  0.1252  0.6645
 1744WAT      O 7049   0.961   0.186   2.679 -0.2581  0.1805  0.0189
 1744WAT     H1 7050   1.029   0.119   2.677  0.7444  1.0628  2.0830
 1744WAT     H2 7051   1.003   0.264   2.642 -0.6088  0.3689  0.0056
 1744WAT    EPW 7052   0.975   0.188   2.674 -0.1721  0.3217  0.2894
 1745WAT      O 7053   0.222   2.678   2.810  0.2727 -0.0303  0.0036
 1745WAT     H1 7054   0.243   2.606   2.750 -1.3523 -0.2841 -0.3062
 1745WAT     H2 7055   0.140   2.651   2.852  0.8831  0.5678  1.6612
 1745WAT    EPW 7056   0.214   2.665   2.807  0.1389  0.0151  0.1814
 1746WAT      O 7057   2.463   0.576   0.789  0.2022 -0.2138 -0.2371
 1746WAT     H1 7058   2.395   0.515   0.818  0.6864 -0.4228  0.4893
 1746WAT     H2 7059   2.508   0.529   0.719  2.4622 -1.9944  2.2047
 1746WAT    EPW 7060   2.460   0.562   0.784  0.5641 -0.4762  0.1808
 1747WAT      O 7061   3.056   3.562   0.419 -0.5975 -0.0529 -0.3021
 1747WAT     H1 7062   3.097   3.499   0.361 -0.4099  0.9074 -1.2469
 1747WAT     H2 7063   3.130   3.608   0.461 -0.7265  0.0347 -0.1681
 1747WAT    EPW 7064   3.071   3.560   0.417 -0.5898  0.0853 -0.4090
 1748WAT      O 7065   2.541   0.371   1.796 -0.8285 -0.5006  0.5214
 1748WAT     H1 7066   2.484   0.343   1.724 -1.3322 -0.0460  0.7363
 1748WAT     H2 7067   2.601   0.297   1.808  2.9921  1.3417 -4.0203
 1748WAT    EPW 7068   2.541   0.357   1.788 -0.3910 -0.1976 -0.0493
 1749WAT      O 7069   1.937   0.145   0.687  0.6364 -0.4414  0.1129
 1749WAT     H1 7070   1.924   0.235   0.716  0.4101 -0.4069 -0.0948
 1749WAT     H2 7071   1.940   0.150   0.592  0.6995 -0.6431  0.1035
 1749WAT    EPW 7072   1.936   0.158   0.678  0.6149 -0.4635  0.0843
 1750WAT      O 7073   0.415   1.030   1.402  0.2873 -0.2225  0.3343
 1750WAT     H1 7074   0.487   1.045   1.342  1.1060  1.5880  1.6738
 1750WAT     H2 7075   0.452   0.974   1.470  0.0567 -0.3055  0.3927
 1750WAT    EPW 7076   0.429   1.024   1.403  0.3648  0.0054  0.5187
 1751WAT      O 7077   0.367   3.515   1.118 -0.0959 -0.0764 -0.2207
 1751WAT     H1 7078   0.275   3.514   1.143  0.0260 -0.3454  0.2377
 1751WAT     H2 7079   0.369   3.473   1.032 -0.5428  1.0257 -0.7894
 1751WAT    EPW 7080   0.355   3.509   1.110 -0.1388  0.0335 -0.2352
 1752WAT      O 7081   1.066   0.339   0.567 -0.0429  0.3106  0.0045
 1752WAT     H1 7082   0.973   0.354   0.579  0.1138  0.8183  0.6040
 1752WAT     H2 7083   1.081   0.353   0.474 -0.8104 -1.1558 -0.3785
 1752WAT    EPW 7084   1.056   0.343   0.557 -0.1235  0.1841  0.0331
 1753WAT      O 7085   0.138   1.306   3.195 -0.4975 -0.2849 -0.2301
 1753WAT     H1 7086   0.203   1.376   3.195  0.7840 -1.4384 -0.1792
 1753WAT     H2 7087   0.189   1.225   3.199 -1.9547 -1.2074  1.5171
 1753WAT    EPW 7088   0.153   1.305   3.196 -0.5207 -0.5587  0.0071
 1754WAT      O 7089   0.187   2.325   3.274  0.6023  0.4167  0.1192
 1754WAT     H1 7090   0.108   2.309   3.325 -0.6510  2.5877 -0.9952
 1754WAT     H2 7091   0.191   2.421   3.265  2.7776  0.3091 -0.7751
 1754WAT    EPW 7092   0.177   2.336   3.279  0.7239  0.6889 -0.1457
 1755WAT      O 7093   1.358   2.726   3.429  0.2404  0.3202  0.0070
 1755WAT     H1 7094   1.434   2.692   3.381 -1.3163 -1.3264 -1.4670
 1755WAT     H2 7095   1.359   2.820   3.411  0.3538 -0.0718 -2.4817
 1755WAT    EPW 7096   1.368   2.734   3.420  0.0500  0.0513 -0.5157
 1756WAT      O 7097   0.657   1.462   0.187 -0.1862  0.1322  0.3505
 1756WAT     H1 7098   0.697   1.451   0.100 -0.9089  0.7966 -0.0689
 1756WAT     H2 7099   0.716   1.522   0.233 -0.5666  0.9512 -0.2002
 1756WAT    EPW 7100   0.670   1.468   0.182 -0.3317  0.3279  0.2226
 1757WAT      O 7101   3.509   1.058   0.027 -0.2320 -0.0128 -0.2998
 1757WAT     H1 7102   3.596   1.061  -0.013 -0.2243 -1.1562 -0.4052
 1757WAT     H2 7103   3.510   1.127   0.093  0.3300  0.8033 -1.1315
 1757WAT    EPW 7104   3.521   1.067   0.030 -0.1569 -0.0560 -0.4234
 1758WAT      O 7105   0.730   3.982   0.992 -0.4820  0.2025  0.1518
 1758WAT     H1 7106   0.678   3.945   0.920  0.1376  0.3141 -0.3659
 1758WAT     H2 7107   0.792   4.041   0.949  1.3454 -1.3538  0.5365
 1758WAT    EPW 7108   0.731   3.985   0.977 -0.1593  0.0120  0.1343
 1759WAT      O 7109   1.741   3.181   3.820  0.1274 -0.5108 -0.2668
 1759WAT     H1 7110   1.693   3.204   3.900  0.4515  1.7869 -0.6401
 1759WAT     H2 7111   1.823   3.143   3.851 -0.0770 -0.3704  0.4738
 1759WAT    EPW 7112   1.745   3.179   3.835  0.1432 -0.1893 -0.2184
 1760WAT      O 7113   2.394   3.494   2.694  0.4991  0.0697 -0.2440
 1760WAT     H1 7114   2.387   3.405   2.659  0.3264  0.5000 -1.3404
 1760WAT     H2 7115   2.443   3.542   2.627 -0.6512  1.1478 -0.3290
 1760WAT    EPW 7116   2.400   3.488   2.680  0.3246  0.2686 -0.3998
 1761WAT      O 7117   1.433   3.233   1.762 -0.1159  0.3015 -0.3247
 1761WAT     H1 7118   1.381   3.208   1.686 -1.0212  2.3269 -0.4379
 1761WAT     H2 7119   1.460   3.323   1.744  3.9314 -0.7729 -0.4897
 1761WAT    EPW 7120   1.430   3.242   1.750  0.2985  0.4269 -0.3614
 1762WAT      O 7121   3.603   0.102   3.239  0.3791  0.1225  0.0078
 1762WAT     H1 7122   3.616   0.192   3.271  0.0420  0.1963 -0.0671
 1762WAT     H2 7123   3.513   0.080   3.263  1.0268 -0.8763  1.6861
 1762WAT    EPW 7124   3.593   0.111   3.247  0.4201  0.0005  0.2193
 1763WAT      O 7125   3.038   4.044   1.190  0.1681 -0.2364 -0.1849
 1763WAT     H1 7126   2.949   4.014   1.171 -0.1051 -0.1420  0.8798
 1763WAT     H2 7127   3.089   3.964   1.202  0.5837 -0.3275 -2.2074
 1763WAT    EPW 7128   3.033   4.030   1.189  0.1869 -0.2360 -0.3112
 1764WAT      O 7129   1.744   3.842   1.714 -0.5100 -0.2495  0.1401
 1764WAT     H1 7130   1.786   3.756   1.715 -0.1428 -0.0845 -0.4801
 1764WAT     H2 7131   1.685   3.840   1.639 -0.9711 -0.1700  0.4897
 1764WAT    EPW 7132   1.742   3.830   1.704 -0.5224 -0.2173  0.1044
 1765WAT      O 7133   2.328   3.439   3.656 -0.7405 -0.5074 -0.3294
 1765WAT     H1 7134   2.338   3.527   3.692 -0.0855 -0.7943  0.2081
 1765WAT     H2 7135   2.234   3.422   3.659 -0.9223  0.3427 -0.8522
 1765WAT    EPW 7136   2.317   3.449   3.661 -0.6781 -0.4331 -0.3275
 1766WAT      O 7137   3.635   0.875   3.211  0.0013  0.0794 -0.7100
 1766WAT     H1 7138   3.689   0.862   3.134  0.8787  0.5860 -0.2016
 1766WAT     H2 7139   3.613   0.787   3.241 -0.7729 -0.1258 -1.8007
 1766WAT    EPW 7140   3.639   0.862   3.205  0.0149  0.1192 -0.7868
 1767WAT      O 7141   2.482   0.164   0.715  0.0239  0.6018 -0.5992
 1767WAT     H1 7142   2.530   0.215   0.780 -1.1227  0.6575  0.2247
 1767WAT     H2 7143   2.488   0.073   0.746  0.7732  0.4106 -1.2566
 1767WAT    EPW 7144   2.490   0.158   0.728 -0.0285  0.5839 -0.5772
 1768WAT      O 7145   2.038   1.556   2.050  0.0667  0.2132 -0.0265
 1768WAT     H1 7146   2.108   1.616   2.024  0.4633 -0.1299  0.2373
 1768WAT     H2 7147   2.083   1.484   2.093 -0.4371 -0.1093 -0.0319
 1768WAT    EPW 7148   2.053   1.555   2.052  0.0526  0.1254  0.0076
 1769WAT      O 7149   2.994   0.690   3.731  0.1360  0.4746  0.2801
 1769WAT     H1 7150   2.949   0.628   3.789 -2.1912  0.7110 -1.1656
 1769WAT     H2 7151   3.024   0.636   3.658 -1.1935  0.8584 -0.5899
 1769WAT    EPW 7152   2.992   0.675   3.729 -0.3463  0.5564 -0.0253
 1770WAT      O 7153   0.323   1.999   2.460  0.6676 -0.0305  0.2742
 1770WAT     H1 7154   0.228   2.016   2.460  0.8439  1.0150  0.6317
 1770WAT     H2 7155   0.356   2.052   2.388  1.1851  0.9097  1.1788
 1770WAT    EPW 7156   0.315   2.008   2.451  0.7591  0.2314  0.4407
 1771WAT      O 7157   0.713   0.014   2.594 -0.8978 -0.2053  0.2767
 1771WAT     H1 7158   0.787   0.067   2.624 -0.2424 -0.1818 -1.3033
 1771WAT     H2 7159   0.712  -0.062   2.653  0.4951 -0.2998  0.2055
 1771WAT    EPW 7160   0.722   0.011   2.606 -0.6276 -0.2147  0.0589
 1772WAT      O 7161   1.086   3.736   1.083 -0.4148  0.1403  0.6337
 1772WAT     H1 7162   1.044   3.720   1.168  0.9405  0.5902  1.4124
 1772WAT     H2 7163   1.163   3.788   1.103 -0.6107  1.1544 -1.0113
 1772WAT    EPW 7164   1.091   3.741   1.097 -0.2619  0.3334  0.5194
 1773WAT      O 7165   2.796   3.448   2.125 -0.3206  0.3666  0.4006
 1773WAT     H1 7166   2.839   3.395   2.192 -1.5183 -0.9481  0.1684
 1773WAT     H2 7167   2.702   3.436   2.142 -0.6378  0.3130 -1.2790
 1773WAT    EPW 7168   2.789   3.439   2.136 -0.5204  0.1861  0.1485
 1774WAT      O 7169   2.268   2.123   1.627  0.5887 -0.2351 -0.2306
 1774WAT     H1 7170   2.182   2.165   1.632  1.3392  1.2629  0.8102
 1774WAT     H2 7171   2.284   2.090   1.715  0.7416 -1.2617 -0.6279
 1774WAT    EPW 7172   2.259   2.124   1.639  0.7078 -0.1729 -0.1457
 1775WAT      O 7173   3.006   2.434   3.534 -0.2188  0.4202 -0.6419
 1775WAT     H1 7174   3.063   2.426   3.457  1.6487  1.0167  0.5888
 1775WAT     H2 7175   2.986   2.344   3.559 -1.3589  0.2218 -2.1346
 1775WAT    EPW 7176   3.011   2.421   3.528 -0.1229  0.4727 -0.6765
 1776WAT      O 7177   2.726   2.384   0.614  0.3328 -0.1751 -0.3708
 1776WAT     H1 7178   2.649   2.441   0.614  0.2574 -0.1919  1.7196
 1776WAT     H2 7179   2.691   2.297   0.596  0.2426  0.1658 -1.9908
 1776WAT    EPW 7180   2.711   2.380   0.612  0.3110 -0.1324 -0.3088
 1777WAT      O 7181   0.307   0.196   1.933 -0.1180  0.1953 -0.5727
 1777WAT     H1 7182   0.350   0.146   2.002  0.4171  0.0729 -0.9832
 1777WAT     H2 7183   0.262   0.267   1.979 -0.0760 -0.0975 -0.0719
 1777WAT    EPW 7184   0.307   0.199   1.948 -0.0419  0.1405 -0.5608
 1778WAT      O 7185   3.474   3.515   3.581  0.5104 -0.1579 -0.1085
 1778WAT     H1 7186   3.402   3.569   3.549  0.8457  0.1688 -0.3232
 1778WAT     H2 7187   3.513   3.478   3.501  0.0676 -1.0009  0.0518
 1778WAT    EPW 7188   3.470   3.517   3.566  0.4962 -0.2260 -0.1157
 1779WAT      O 7189   3.475   3.596   2.820  0.1268 -0.4161 -0.7886
 1779WAT     H1 7190   3.404   3.536   2.841  0.5736 -0.6459  0.1390
 1779WAT     H2 7191   3.501   3.633   2.904  1.1954 -0.4437 -1.0875
 1779WAT    EPW 7192   3.469   3.593   2.834  0.3267 -0.4501 -0.7057
 1780WAT      O 7193   1.998   0.441   1.378 -0.0955 -0.0210  0.1970
 1780WAT     H1 7194   1.971   0.349   1.373  0.0975 -0.0626 -0.1439
 1780WAT     H2 7195   1.960   0.473   1.460  0.4542 -0.5997  0.6877
 1780WAT    EPW 7196   1.989   0.433   1.388  0.0025 -0.1028  0.2167
 1781WAT      O 7197   1.133   0.706   3.192  0.1459  0.4557  0.0186
 1781WAT     H1 7198   1.084   0.787   3.202  1.0076  0.9356  0.4451
 1781WAT     H2 7199   1.192   0.722   3.119  1.6939  0.9394  1.3209
 1781WAT    EPW 7200   1.134   0.719   3.184  0.4637  0.5828  0.2466
 1782WAT      O 7201   1.133   3.932   1.905 -0.1548  0.1354  0.1465
 1782WAT     H1 7202   1.128   3.944   1.810  0.0023  1.0822  0.2458
 1782WAT     H2 7203   1.123   3.838   1.918  3.0359 -0.5031 -1.0427
 1782WAT    EPW 7204   1.131   3.922   1.894  0.2867  0.1760  0.0027
 1783WAT      O 7205   3.211   1.039   1.908 -0.1687  0.5957  0.0896
 1783WAT     H1 7206   3.176   1.128   1.912 -0.8548  0.3391 -0.0779
 1783WAT     H2 7207   3.286   1.045   1.849 -0.0629  1.1086  0.2756
 1783WAT    EPW 7208   3.216   1.051   1.901 -0.2452  0.6295  0.0920
 1784WAT      O 7209   2.855   3.478   1.719  0.7521 -0.0292 -0.0943
 1784WAT     H1 7210   2.835   3.544   1.652  0.4888  0.1445  0.1501
 1784WAT     H2 7211   2.935   3.509   1.760 -0.2788  1.0619  1.1690
 1784WAT    EPW 7212   2.863   3.491   1.716  0.5814  0.1377  0.1045
 1785WAT      O 7213   1.930   1.123   1.395 -0.1333 -0.5188 -0.9072
 1785WAT     H1 7214   1.926   1.106   1.489  0.0341 -2.1833 -1.1728
 1785WAT     H2 7215   2.009   1.078   1.366 -0.3041 -0.2130 -1.8962
 1785WAT    EPW 7216   1.940   1.115   1.404 -0.1338 -0.6980 -1.0726
 1786WAT      O 7217   2.118   2.928   1.420 -0.6405 -0.5206 -0.3487
 1786WAT     H1 7218   2.097   2.905   1.510  0.7338 -2.1097 -0.3911
 1786WAT     H2 7219   2.063   2.870   1.367 -1.2189  0.1955 -0.5611
 1786WAT    EPW 7220   2.108   2.917   1.425 -0.5355 -0.6357 -0.3823
 1787WAT      O 7221   1.150   0.258   0.907  0.5589 -0.1773 -0.0062
 1787WAT     H1 7222   1.153   0.252   0.812 -0.5613 -2.6661  0.0299
 1787WAT     H2 7223   1.093   0.333   0.924  0.4624  0.0658 -1.2891
 1787WAT    EPW 7224   1.143   0.267   0.897  0.3985 -0.4735 -0.1707
 1788WAT      O 7225   3.144   4.047   3.500  0.0422  0.1796  0.2374
 1788WAT     H1 7226   3.163   4.039   3.593 -0.1936 -0.8545  0.2102
 1788WAT     H2 7227   3.227   4.071   3.460  0.4998 -0.8214  0.5468
 1788WAT    EPW 7228   3.157   4.049   3.507  0.0714 -0.0888  0.2746
 1789WAT      O 7229   3.100   4.059   2.929 -0.0506  0.3383  0.3541
 1789WAT     H1 7230   3.079   4.138   2.881 -0.8821  0.4030  0.8108
 1789WAT     H2 7231   3.093   4.084   3.021  1.6479  0.2569  0.5353
 1789WAT    EPW 7232   3.097   4.073   2.935  0.0637  0.3361  0.4382
 1790WAT      O 7233   0.787   3.488   1.019 -0.3492 -0.4614  0.0917
 1790WAT     H1 7234   0.787   3.415   1.081  0.2326  0.3204  1.0395
 1790WAT     H2 7235   0.855   3.465   0.956  0.1744 -0.5177  0.6642
 1790WAT    EPW 7236   0.796   3.475   1.019 -0.2034 -0.3657  0.2922
 1791WAT      O 7237   1.843   2.177   0.355 -0.6010 -0.3305  0.7537
 1791WAT     H1 7238   1.764   2.217   0.319 -1.3084 -2.2138  0.1257
 1791WAT     H2 7239   1.845   2.207   0.446 -0.6287  1.7575  0.1176
 1791WAT    EPW 7240   1.833   2.186   0.362 -0.6979 -0.3035  0.5870
 1792WAT      O 7241   2.863   4.183   3.415  0.3283 -0.3337 -0.0506
 1792WAT     H1 7242   2.927   4.166   3.345  0.6751  0.3402  0.0933
 1792WAT     H2 7243   2.848   4.098   3.455  0.1108 -0.7375 -0.9604
 1792WAT    EPW 7244   2.869   4.170   3.411  0.3454 -0.2981 -0.1516
 1793WAT      O 7245   1.759   3.941   0.237 -0.5019  0.3742  0.4455
 1793WAT     H1 7246   1.668   3.942   0.267 -0.0112  0.3099  2.0452
 1793WAT     H2 7247   1.761   3.876   0.167 -1.8271  0.9297 -0.1329
 1793WAT    EPW 7248   1.747   3.932   0.232 -0.6120  0.4390  0.5802
 1794WAT      O 7249   1.929   4.052   1.591 -0.1304 -0.0116  0.4755
 1794WAT     H1 7250   2.006   4.042   1.647  0.2483 -0.2170 -0.0698
 1794WAT     H2 7251   1.858   4.008   1.639  0.6720 -2.1966 -0.1960
 1794WAT    EPW 7252   1.930   4.045   1.604  0.0254 -0.3269  0.3150
 1795WAT      O 7253   2.862   3.861   2.020  0.0875  0.1796  0.5537
 1795WAT     H1 7254   2.852   3.949   2.057 -1.7004 -0.4690  1.7335
 1795WAT     H2 7255   2.787   3.851   1.962  0.2707 -0.5633  0.4392
 1795WAT    EPW 7256   2.851   3.871   2.018 -0.1241 -0.0040  0.6942
 1796WAT      O 7257   0.952   1.823   2.906 -0.2212  0.1155 -0.5073
 1796WAT     H1 7258   1.001   1.775   2.973  0.0565  0.9932 -0.0608
 1796WAT     H2 7259   0.936   1.909   2.946 -0.5148  0.4679 -1.3691
 1796WAT    EPW 7260   0.956   1.828   2.920 -0.2233  0.2777 -0.5621
 1797WAT      O 7261   0.299   4.043   1.774  0.4297 -0.4344  0.1660
 1797WAT     H1 7262   0.369   3.979   1.762  0.2641 -0.4744 -0.5944
 1797WAT     H2 7263   0.248   4.039   1.694 -0.6700 -0.6696  0.8581
 1797WAT    EPW 7264   0.301   4.034   1.762  0.2628 -0.4707  0.1570
 1798WAT      O 7265   2.106   0.140   2.044  0.1348  0.1985  0.1474
 1798WAT     H1 7266   2.014   0.158   2.027  0.6295  0.4833 -2.7439
 1798WAT     H2 7267   2.122   0.056   2.001  1.1255 -0.1088  1.0722
 1798WAT    EPW 7268   2.096   0.131   2.036  0.3307  0.1956 -0.1120
 1799WAT      O 7269   1.955   2.419   1.896  0.0890  0.4003  0.6473
 1799WAT     H1 7270   1.979   2.370   1.817 -0.4385  0.9047  0.1635
 1799WAT     H2 7271   1.887   2.480   1.866 -0.3916  0.3292  1.5716
 1799WAT    EPW 7272   1.949   2.421   1.881 -0.0440  0.4574  0.7054
 1800WAT      O 7273   2.732   3.185   3.439  0.4547  0.6330 -0.2138
 1800WAT     H1 7274   2.649   3.200   3.483  0.2443  0.2815 -0.4864
 1800WAT     H2 7275   2.777   3.120   3.492  0.7359  1.1223  0.1585
 1800WAT    EPW 7276   2.727   3.179   3.452  0.4640  0.6512 -0.2006
 1801WAT      O 7277   2.758   1.314   2.420 -0.5661 -0.2342  0.1692
 1801WAT     H1 7278   2.818   1.382   2.388  0.2020 -1.3258 -0.7798
 1801WAT     H2 7279   2.807   1.270   2.490 -0.5115 -0.7081 -0.1667
 1801WAT    EPW 7280   2.772   1.317   2.425 -0.4576 -0.4407 -0.0002
 1802WAT      O 7281   0.782   1.085   0.844 -0.1851 -0.0777  0.2962
 1802WAT     H1 7282   0.851   1.078   0.909 -0.6072  1.2599  0.9165
 1802WAT     H2 7283   0.742   1.171   0.859 -0.8428 -0.0806 -1.1813
 1802WAT    EPW 7284   0.786   1.095   0.855 -0.3275  0.0983  0.1831
 1803WAT      O 7285   1.429   3.240   3.209  0.0020  0.3141  0.2135
 1803WAT     H1 7286   1.511   3.285   3.226 -0.2077  0.2134  1.5766
 1803WAT     H2 7287   1.445   3.192   3.127  1.3076  0.2812  0.4640
 1803WAT    EPW 7288   1.442   3.239   3.200  0.1465  0.2965  0.4263
 1804WAT      O 7289   1.320   2.004   3.047 -0.2626  0.1383  0.3915
 1804WAT     H1 7290   1.333   2.082   2.992 -0.5446  1.9863  2.7964
 1804WAT     H2 7291   1.308   1.933   2.984  1.3228  1.7652 -1.9377
 1804WAT    EPW 7292   1.320   2.005   3.031 -0.0907  0.5966  0.4014
 1805WAT      O 7293   2.295   0.870   3.268 -0.0999  0.2517  0.3976
 1805WAT     H1 7294   2.340   0.849   3.350  1.4731 -1.0825 -0.7463
 1805WAT     H2 7295   2.335   0.951   3.237  1.1099 -0.5798 -0.2819
 1805WAT    EPW 7296   2.306   0.878   3.275  0.2671 -0.0339  0.1571
 1806WAT      O 7297   1.483   1.208   1.869  0.2057  0.6991 -0.0927
 1806WAT     H1 7298   1.535   1.152   1.812 -0.8999  0.5651 -1.0117
 1806WAT     H2 7299   1.537   1.220   1.947  0.7400 -1.1470 -0.1173
 1806WAT    EPW 7300   1.497   1.202   1.872  0.1304  0.4379 -0.2172
 1807WAT      O 7301   2.764   2.209   1.977 -0.2965  0.0945 -0.2491
 1807WAT     H1 7302   2.790   2.125   1.938 -1.0349  0.5646 -1.8176
 1807WAT     H2 7303   2.728   2.185   2.063  1.1786 -0.9909  0.1256
 1807WAT    EPW 7304   2.763   2.195   1.984 -0.1993  0.0133 -0.4065
 1808WAT      O 7305   0.215   4.163   1.226  0.1610  0.6479 -0.1242
 1808WAT     H1 7306   0.300   4.188   1.192  0.8934  0.0873  1.1994
 1808WAT     H2 7307   0.165   4.136   1.149  1.2663  0.7194 -0.8908
 1808WAT    EPW 7308   0.220   4.163   1.212  0.4034  0.5834 -0.0508
 1809WAT      O 7309   1.665   0.867   1.874 -0.1077  0.0434  0.0268
 1809WAT     H1 7310   1.608   0.850   1.949 -1.2499 -1.2291 -1.0730
 1809WAT     H2 7311   1.632   0.950   1.838 -0.7720 -0.2836 -0.1361
 1809WAT    EPW 7312   1.653   0.876   1.879 -0.3460 -0.1676 -0.1398
 1810WAT      O 7313   2.936   0.132   1.017  0.1013 -0.4555  0.0549
 1810WAT     H1 7314   2.907   0.066   1.080 -1.2321  0.5271  0.5085
 1810WAT     H2 7315   2.986   0.195   1.069  0.3297 -0.4576 -0.1599
 1810WAT    EPW 7316   2.939   0.132   1.032 -0.0444 -0.3262  0.0864
 1811WAT      O 7317   1.490   1.230   1.401  0.0170  0.0255  0.1043
 1811WAT     H1 7318   1.426   1.283   1.447 -0.4063  1.4443 -1.9628
 1811WAT     H2 7319   1.438   1.165   1.354  0.3185 -0.4596  0.4310
 1811WAT    EPW 7320   1.475   1.229   1.401  0.0009  0.1487 -0.1253
 1812WAT      O 7321   2.438   0.910   1.166 -0.1387 -0.4060 -0.6732
 1812WAT     H1 7322   2.472   0.898   1.077 -1.1203 -1.3632 -0.9591
 1812WAT     H2 7323   2.514   0.902   1.223  0.7082  1.4474 -1.4676
 1812WAT    EPW 7324   2.452   0.907   1.162 -0.1564 -0.2878 -0.8157
 1813WAT      O 7325   3.495   3.623   2.521 -0.3799 -0.2462  0.8983
 1813WAT     H1 7326   3.501   3.616   2.616 -1.3019  0.2630  1.0085
 1813WAT     H2 7327   3.450   3.706   2.506  1.3779  0.5930 -0.0445
 1813WAT    EPW 7328   3.490   3.633   2.531 -0.2696 -0.0684  0.7885
 1814WAT      O 7329   3.285   2.046   0.349 -0.6007 -0.0115  0.5659
 1814WAT     H1 7330   3.301   2.045   0.444  1.8735 -1.3365  0.2167
 1814WAT     H2 7331   3.224   1.974   0.334  0.3380 -0.9075  0.9831
 1814WAT    EPW 7332   3.279   2.037   0.360 -0.1505 -0.3044  0.5749
 1815WAT      O 7333   0.052   3.363   0.931 -0.2919 -0.4326 -0.4470
 1815WAT     H1 7334   0.010   3.281   0.906  3.6559 -2.5958 -0.8578
 1815WAT     H2 7335   0.035   3.422   0.858 -1.9976 -1.3326 -0.8295
 1815WAT    EPW 7336   0.044   3.360   0.918  0.0038 -0.8366 -0.5517
 1816WAT      O 7337   2.764   1.540   1.846 -0.2561 -0.2946 -0.6753
 1816WAT     H1 7338   2.755   1.599   1.771 -1.0834  1.1311  0.5092
 1816WAT     H2 7339   2.847   1.566   1.887 -0.1368 -0.6210 -0.7067
 1816WAT    EPW 7340   2.774   1.551   1.841 -0.3495 -0.1496 -0.5232
 1817WAT      O 7341   0.635   4.066   0.023  0.6647  0.4052  0.0795
 1817WAT     H1 7342   0.635   3.983  -0.024 -0.2290 -0.2417  1.1867
 1817WAT     H2 7343   0.631   4.043   0.115 -0.3308  1.6596  0.3962
 1817WAT    EPW 7344   0.634   4.052   0.029  0.4155  0.4853  0.2673
 1818WAT      O 7345   1.003   4.045   3.568 -0.4249  0.2909 -0.6576
 1818WAT     H1 7346   1.098   4.055   3.555 -0.5605  2.0334 -0.4970
 1818WAT     H2 7347   0.991   4.057   3.662 -0.9556  1.7303 -0.8851
 1818WAT    EPW 7348   1.014   4.048   3.578 -0.5128  0.7106 -0.6664
 1819WAT      O 7349   3.332   4.040   0.195 -0.4210 -0.7683  0.1125
 1819WAT     H1 7350   3.264   4.003   0.252 -0.3680 -0.7462  0.1904
 1819WAT     H2 7351   3.386   4.093   0.254 -0.8278 -0.1109 -0.0906
 1819WAT    EPW 7352   3.330   4.042   0.210 -0.4677 -0.6787  0.0960
 1820WAT      O 7353   3.629   2.485   2.716  0.1704 -0.7787  0.6203
 1820WAT     H1 7354   3.683   2.419   2.672 -0.3255 -0.8327  0.0885
 1820WAT     H2 7355   3.555   2.437   2.752 -1.7056 -0.1906 -2.1880
 1820WAT    EPW 7356   3.627   2.470   2.715 -0.1424 -0.7082  0.1798
 1821WAT      O 7357   2.717   0.233   1.352  0.1406  0.1847 -0.1681
 1821WAT     H1 7358   2.730   0.292   1.278  1.6967 -0.5892 -0.5702
 1821WAT     H2 7359   2.787   0.256   1.413 -1.0963  0.7769  1.0606
 1821WAT    EPW 7360   2.728   0.244   1.350  0.1827  0.1607 -0.0591
 1822WAT      O 7361   0.865   3.681   0.296 -0.0065 -0.0575 -0.0236
 1822WAT     H1 7362   0.949   3.648   0.264  0.7241  1.6140  0.0508
 1822WAT     H2 7363   0.800   3.621   0.259  1.2140 -1.5222  0.0989
 1822WAT    EPW 7364   0.867   3.669   0.287  0.2508 -0.0302  0.0024
 1823WAT      O 7365   2.508   3.726   0.871 -0.3030 -0.2348  0.3096
 1823WAT     H1 7366   2.436   3.722   0.808  0.7942 -1.3209 -0.9273
 1823WAT     H2 7367   2.546   3.813   0.859 -0.6594 -0.0980  0.1375
 1823WAT    EPW 7368   2.503   3.737   0.861 -0.2053 -0.3600  0.1238
 1824WAT      O 7369   2.943   3.623   3.642 -0.1541 -0.1444  0.1133
 1824WAT     H1 7370   3.020   3.640   3.695 -0.0297 -1.1784  0.2909
 1824WAT     H2 7371   2.958   3.670   3.560  0.1907  0.4893  0.5389
 1824WAT    EPW 7372   2.955   3.631   3.638 -0.0922 -0.1972  0.1929
 1825WAT      O 7373   0.979   1.966   3.646  0.0729  0.6801  0.4390
 1825WAT     H1 7374   1.024   2.032   3.593  2.1258  0.3007  1.6172
 1825WAT     H2 7375   1.024   1.884   3.627 -1.0131  0.0022  0.6640
 1825WAT    EPW 7376   0.991   1.964   3.637  0.2004  0.5407  0.6240
 1826WAT      O 7377   1.443   3.584   0.385 -0.0440  0.5720 -0.3281
 1826WAT     H1 7378   1.527   3.592   0.431  1.2424 -0.7038 -2.2838
 1826WAT     H2 7379   1.397   3.514   0.431  0.9156 -0.2076 -0.5207
 1826WAT    EPW 7380   1.448   3.576   0.397  0.2523  0.3009 -0.6114
 1827WAT      O 7381   1.111   3.338   1.952 -0.1000  0.1534 -0.2191
 1827WAT     H1 7382   1.153   3.315   1.870  1.3282  0.1662  0.4791
 1827WAT     H2 7383   1.036   3.278   1.958 -0.3622  0.3081 -1.6120
 1827WAT    EPW 7384   1.107   3.327   1.942  0.0538  0.1755 -0.3108
 1828WAT      O 7385   1.643   1.929   0.214 -0.0668  0.1285  0.4150
 1828WAT     H1 7386   1.728   1.941   0.256  1.1117 -0.0528 -1.7847
 1828WAT     H2 7387   1.646   1.840   0.178 -1.4366 -0.0969  0.8075
 1828WAT    EPW 7388   1.655   1.919   0.215 -0.0920  0.0749  0.1767
 1829WAT      O 7389   0.224   0.769   0.464  0.2602  0.4571 -0.4676
 1829WAT     H1 7390   0.310   0.810   0.474 -0.3565  1.9609 -1.0014
 1829WAT     H2 7391   0.239   0.699   0.400  1.2933 -0.0384  0.2811
 1829WAT    EPW 7392   0.237   0.765   0.457  0.3152  0.5901 -0.4393
 1830WAT      O 7393   0.518   2.632   2.648  0.4698  0.2906 -0.7844
 1830WAT     H1 7394   0.505   2.588   2.732 -0.6921  1.5612 -0.2575
 1830WAT     H2 7395   0.612   2.650   2.645  0.3557  1.4601  0.9362
 1830WAT    EPW 7396   0.529   2.629   2.659  0.3015  0.6124 -0.4880
 1831WAT      O 7397   0.121   2.964   3.737  0.8071 -0.7148 -0.4105
 1831WAT     H1 7398   0.030   2.992   3.731  0.9740  0.0484  0.3793
 1831WAT     H2 7399   0.145   2.938   3.648 -0.1520 -0.8561 -0.6387
 1831WAT    EPW 7400   0.112   2.964   3.725  0.7026 -0.6328 -0.3364
 1832WAT      O 7401   2.071   0.326   1.043  0.3893  0.0552  0.2873
 1832WAT     H1 7402   2.141   0.291   0.987  0.4692  0.7438 -0.0522
 1832WAT     H2 7403   2.115   0.350   1.124  0.2740 -0.9447  0.6598
 1832WAT    EPW 7404   2.086   0.325   1.046  0.3846  0.0141  0.2917
 1833WAT      O 7405   3.113   0.786   1.799  0.0619 -0.1372  0.1144
 1833WAT     H1 7406   3.205   0.763   1.788 -0.1084  0.0537 -2.2459
 1833WAT     H2 7407   3.114   0.880   1.821  0.4715  1.4211 -5.1992
 1833WAT    EPW 7408   3.125   0.796   1.801  0.0934  0.0935 -0.8977
 1834WAT      O 7409   0.154   4.164   2.654  0.0570  0.4703  0.0697
 1834WAT     H1 7410   0.243   4.163   2.689 -0.4387  0.5679  1.3936
 1834WAT     H2 7411   0.098   4.175   2.731 -1.0585  1.3203 -0.8198
 1834WAT    EPW 7412   0.158   4.165   2.669 -0.1555  0.5953  0.1270
 1835WAT      O 7413   0.158   0.732   1.611 -0.0074  0.0800 -0.6472
 1835WAT     H1 7414   0.134   0.640   1.607 -1.5293  0.4961 -2.3056
 1835WAT     H2 7415   0.197   0.751   1.526 -2.4786  1.6243 -1.5368
 1835WAT    EPW 7416   0.160   0.722   1.600 -0.5341  0.3385 -0.9833
 1836WAT      O 7417   2.720   3.797   2.731  0.7330 -0.2127 -0.1937
 1836WAT     H1 7418   2.765   3.831   2.653 -1.2361  1.2227 -0.7969
 1836WAT     H2 7419   2.766   3.836   2.805  1.3795  0.0333 -0.7182
 1836WAT    EPW 7420   2.732   3.807   2.730  0.5586  0.0090 -0.3424
 1837WAT      O 7421   0.032   3.690   1.453  0.1030  0.5568  0.1502
 1837WAT     H1 7422  -0.043   3.747   1.467 -0.6494 -0.2471 -0.5479
 1837WAT     H2 7423   0.037   3.679   1.358  1.7065  1.3879  0.1086
 1837WAT    EPW 7424   0.023   3.696   1.443  0.2153  0.5604  0.0526
 1838WAT      O 7425   0.459   0.835   1.602  0.1236  0.3713 -0.9512
 1838WAT     H1 7426   0.456   0.868   1.692  1.0290  1.4347 -1.2883
 1838WAT     H2 7427   0.552   0.822   1.585  0.0398  1.1570 -2.0741
 1838WAT    EPW 7428   0.471   0.837   1.612  0.2320  0.6152 -1.1438
 1839WAT      O 7429   3.558   2.898   2.266 -0.0539  0.3500  0.2138
 1839WAT     H1 7430   3.650   2.883   2.289  0.3474  2.3441  0.1064
 1839WAT     H2 7431   3.559   2.907   2.170 -0.2181  1.1368  0.2786
 1839WAT    EPW 7432   3.571   2.897   2.256 -0.0226  0.7167  0.2082
 1840WAT      O 7433   1.958   3.322   1.661  0.7195 -0.0818 -0.1667
 1840WAT     H1 7434   1.973   3.269   1.583  2.7744  0.1566  0.0088
 1840WAT     H2 7435   1.992   3.270   1.733  0.1487  0.3012  0.3979
 1840WAT    EPW 7436   1.964   3.308   1.660  0.9153  0.0002 -0.0691
 1841WAT      O 7437   0.533   1.851   3.707  0.0262 -0.5065 -0.2439
 1841WAT     H1 7438   0.613   1.809   3.676 -0.2622 -0.6217 -0.8496
 1841WAT     H2 7439   0.512   1.916   3.640  0.0289  0.0594  0.2919
 1841WAT    EPW 7440   0.541   1.854   3.694 -0.0115 -0.4471 -0.2531
 1842WAT      O 7441   1.830   0.504   2.974  0.3901 -0.0864 -0.3828
 1842WAT     H1 7442   1.784   0.436   2.925  0.6440 -1.5827  1.3490
 1842WAT     H2 7443   1.764   0.540   3.033  0.6324  0.0491 -0.1925
 1842WAT    EPW 7444   1.815   0.500   2.975  0.4555 -0.2659 -0.1293
 1843WAT      O 7445   3.078   4.355   2.880  0.1998 -0.0314 -0.4730
 1843WAT     H1 7446   3.171   4.367   2.896  0.5150  0.0293 -2.1368
 1843WAT     H2 7447   3.071   4.344   2.785 -1.4075 -0.7894 -0.3117
 1843WAT    EPW 7448   3.089   4.355   2.869  0.0294 -0.1234 -0.6712
 1844WAT      O 7449   3.606   0.003   1.321 -0.3440 -0.3115  0.3623
 1844WAT     H1 7450   3.597  -0.040   1.236  0.7446  0.4258 -0.1429
 1844WAT     H2 7451   3.696   0.036   1.322 -0.9029  1.2824  1.0308
 1844WAT    EPW 7452   3.616   0.001   1.310 -0.2741 -0.0040  0.3838
 1845WAT      O 7453   3.669   2.997   1.027 -0.1704 -0.3365 -0.0510
 1845WAT     H1 7454   3.644   2.957   0.943  2.6712  0.5258 -1.4423
 1845WAT     H2 7455   3.759   2.967   1.042 -0.0268  0.8624  1.8293
 1845WAT    EPW 7456   3.678   2.988   1.018  0.2233 -0.0647  0.0135
 1846WAT      O 7457   2.158   1.608   1.417  0.2009  0.3911 -0.0804
 1846WAT     H1 7458   2.126   1.613   1.326  0.8453  1.6975 -0.2586
 1846WAT     H2 7459   2.249   1.637   1.412  0.6917 -0.9185  0.7915
 1846WAT    EPW 7460   2.165   1.612   1.404  0.3506  0.3907  0.0111
 1847WAT      O 7461   0.171   3.031   2.922  0.0327 -0.3323  0.0242
 1847WAT     H1 7462   0.205   3.100   2.979 -1.2283  0.0267  0.3825
 1847WAT     H2 7463   0.249   2.992   2.883  0.8986 -0.1657  1.4979
 1847WAT    EPW 7464   0.186   3.035   2.924 -0.0194 -0.2630  0.2659
 1848WAT      O 7465   1.317   2.083   2.082 -0.0000  0.0104 -0.6983
 1848WAT     H1 7466   1.245   2.082   2.019  0.5451  0.0343 -1.3422
 1848WAT     H2 7467   1.366   2.003   2.063 -0.5144 -0.6103  0.5311
 1848WAT    EPW 7468   1.314   2.072   2.071  0.0040 -0.0683 -0.6211
 1849WAT      O 7469   0.953   0.085   0.736 -0.2783 -0.0430  0.1652
 1849WAT     H1 7470   0.860   0.101   0.720 -0.2660  0.8958  0.9187
 1849WAT     H2 7471   0.973   0.138   0.814  1.0381  0.2923 -0.3817
 1849WAT    EPW 7472   0.943   0.094   0.745 -0.1031  0.1251  0.1925
 1850WAT      O 7473   0.676   0.767   0.174  0.4546 -0.2980 -0.4430
 1850WAT     H1 7474   0.697   0.705   0.104  2.4610  0.9478 -1.0026
 1850WAT     H2 7475   0.590   0.802   0.150  0.0466 -1.6147 -0.9901
 1850WAT    EPW 7476   0.667   0.763   0.162  0.6654 -0.3073 -0.5889
 1851WAT      O 7477   3.218   1.546   1.284  0.2809 -0.5122 -0.0762
 1851WAT     H1 7478   3.175   1.465   1.258  0.7064 -0.8822  0.3455
 1851WAT     H2 7479   3.200   1.607   1.213  0.3979 -1.1334 -0.6481
 1851WAT    EPW 7480   3.210   1.543   1.271  0.3524 -0.6430 -0.0960
 1852WAT      O 7481   2.099   2.544   2.668  0.6667  0.0624 -0.1905
 1852WAT     H1 7482   2.081   2.633   2.639 -1.8521 -0.8930 -1.9067
 1852WAT     H2 7483   2.119   2.496   2.587  0.6329 -1.2066  0.5268
 1852WAT    EPW 7484   2.099   2.549   2.653  0.3300 -0.2310 -0.3222
 1853WAT      O 7485   2.828   0.445   2.484 -0.2388  0.1738 -0.2561
 1853WAT     H1 7486   2.805   0.525   2.531  0.9161 -0.3463  1.2977
 1853WAT     H2 7487   2.815   0.466   2.392 -0.5126  1.9605  0.1557
 1853WAT    EPW 7488   2.824   0.458   2.478 -0.1226  0.3408  0.0032
 1854WAT      O 7489   0.823   0.017   3.064 -0.5070  0.3986 -0.2138
 1854WAT     H1 7490   0.801   0.085   3.001 -0.2983 -0.7463 -1.5839
 1854WAT     H2 7491   0.796  -0.065   3.021 -0.7533 -0.3889  1.3746
 1854WAT    EPW 7492   0.816   0.015   3.050 -0.5120  0.1437 -0.1850
 1855WAT      O 7493   1.159   1.745   2.139 -0.2819  0.3924  0.3748
 1855WAT     H1 7494   1.073   1.710   2.161 -0.7147  0.3958 -1.1497
 1855WAT     H2 7495   1.174   1.715   2.049  0.2297  2.4031 -0.2577
 1855WAT    EPW 7496   1.150   1.736   2.130 -0.2715  0.6580  0.0903
 1856WAT      O 7497   2.921   4.163   2.671 -0.1272 -0.4461  0.7228
 1856WAT     H1 7498   2.963   4.229   2.615  0.4063 -0.0755  1.5453
 1856WAT     H2 7499   2.949   4.079   2.634  0.8918 -0.2049  0.9065
 1856WAT    EPW 7500   2.930   4.161   2.659  0.0776 -0.3654  0.8555
 1857WAT      O 7501   2.533   2.493   2.751  0.0882 -0.4263 -0.2141
 1857WAT     H1 7502   2.625   2.476   2.770  0.5760  0.7243 -1.4106
 1857WAT     H2 7503   2.513   2.435   2.677 -1.1382 -3.1447  2.0775
 1857WAT    EPW 7504   2.542   2.483   2.743 -0.0092 -0.6331 -0.0696
 1858WAT      O 7505   0.953   0.064   0.124 -0.1420  0.2060 -0.0115
 1858WAT     H1 7506   0.894   0.043   0.052  0.6170 -1.2970 -0.2295
 1858WAT     H2 7507   0.940  -0.006   0.188  0.9594  0.1694  0.1981
 1858WAT    EPW 7508   0.943   0.052   0.123  0.1034  0.0030 -0.0126
 1859WAT      O 7509   1.894   0.699   1.262  0.1138 -0.3543 -0.6057
 1859WAT     H1 7510   1.832   0.626   1.259  1.6469 -1.8667  1.0874
 1859WAT     H2 7511   1.977   0.661   1.233  0.7088  1.0374 -0.8103
 1859WAT    EPW 7512   1.897   0.684   1.258  0.3945 -0.3702 -0.4094
 1860WAT      O 7513   0.334   0.353   0.440  0.5074  0.3976  0.6151
 1860WAT     H1 7514   0.383   0.421   0.395 -0.4269 -0.0820 -1.2061
 1860WAT     H2 7515   0.367   0.271   0.405 -1.0198  0.0446 -0.0859
 1860WAT    EPW 7516   0.345   0.351   0.430  0.1828  0.2878  0.2825
 1861WAT      O 7517   1.226   1.051   0.683  0.0400  0.5090 -0.6005
 1861WAT     H1 7518   1.305   1.010   0.649  0.0412  0.0434 -0.0577
 1861WAT     H2 7519   1.156   0.991   0.658  0.0915 -0.0783  0.5798
 1861WAT    EPW 7520   1.227   1.037   0.675  0.0470  0.3701 -0.3732
 1862WAT      O 7521   1.827   3.492   2.329  0.5059 -0.7538 -0.0769
 1862WAT     H1 7522   1.757   3.429   2.309 -0.5832  0.5976 -0.7065
 1862WAT     H2 7523   1.881   3.493   2.251 -0.1204 -0.1193 -0.5178
 1862WAT    EPW 7524   1.825   3.484   2.316  0.2796 -0.4919 -0.2181
 1863WAT      O 7525   0.081   2.338   1.815  0.4202 -0.0493 -0.4719
 1863WAT     H1 7526   0.109   2.418   1.771 -1.1717  0.4879 -0.5641
 1863WAT     H2 7527   0.159   2.307   1.861  1.1117  1.4396 -0.5961
 1863WAT    EPW 7528   0.095   2.345   1.815  0.3015  0.2179 -0.5004
 1864WAT      O 7529   0.081   3.266   3.456 -0.4425 -0.3254  0.6637
 1864WAT     H1 7530   0.167   3.265   3.498 -0.8279  1.2318  1.5717
 1864WAT     H2 7531   0.032   3.195   3.499  0.3946 -1.2738  0.0796
 1864WAT    EPW 7532   0.086   3.257   3.467 -0.3830 -0.2451  0.7064
 1865WAT      O 7533   0.454   0.591   2.152 -0.2639 -0.0601  0.3367
 1865WAT     H1 7534   0.506   0.517   2.182  0.2015 -0.2513 -0.8665
 1865WAT     H2 7535   0.505   0.668   2.176 -1.2144 -0.0353  2.4850
 1865WAT    EPW 7536   0.468   0.591   2.159 -0.3279 -0.0820  0.4614
 1866WAT      O 7537   1.691   3.598   0.509 -0.0156  0.4825  0.1363
 1866WAT     H1 7538   1.689   3.628   0.600  0.9989 -0.9802  0.6761
 1866WAT     H2 7539   1.750   3.659   0.466  0.2785  0.5949  0.6870
 1866WAT    EPW 7540   1.698   3.610   0.516  0.1570  0.3044  0.2801
 1867WAT      O 7541   3.710   0.028   2.616  0.5115  0.5847 -0.0283
 1867WAT     H1 7542   3.639  -0.030   2.645  0.3605  0.4237 -0.6827
 1867WAT     H2 7543   3.790  -0.023   2.630  0.3534  0.0710 -0.9102
 1867WAT    EPW 7544   3.711   0.013   2.621  0.4707  0.4957 -0.2309
 1868WAT      O 7545   0.463   2.304   1.777  0.1624 -0.6539  0.4113
 1868WAT     H1 7546   0.405   2.336   1.845  0.1541  1.5474 -0.5340
 1868WAT     H2 7547   0.540   2.361   1.783  0.1851 -0.4494 -1.3313
 1868WAT    EPW 7548   0.466   2.316   1.787  0.1643 -0.3366  0.0568
 1869WAT      O 7549   0.511   3.317   1.252  0.1638  0.1417  0.0968
 1869WAT     H1 7550   0.491   3.390   1.193 -0.5688  0.6466  0.9464
 1869WAT     H2 7551   0.607   3.318   1.259  0.4005 -0.7238 -2.0400
 1869WAT    EPW 7552   0.521   3.327   1.245  0.0984  0.0941 -0.0730
 1870WAT      O 7553   0.512   0.417   0.153 -0.7334  0.1568  0.4287
 1870WAT     H1 7554   0.418   0.431   0.141 -0.7618  0.9972  1.5202
 1870WAT     H2 7555   0.519   0.330   0.191 -0.8251 -1.2856 -2.5488
 1870WAT    EPW 7556   0.501   0.407   0.156 -0.7492  0.0774  0.1800
 1871WAT      O 7557   2.498   2.226   3.580  0.5281 -0.1605  0.0661
 1871WAT     H1 7558   2.580   2.251   3.624 -0.6753  0.5142  2.0304
 1871WAT     H2 7559   2.498   2.131   3.581  1.0406 -0.1621  0.5286
 1871WAT    EPW 7560   2.509   2.217   3.586  0.4370 -0.0717  0.3862
 1872WAT      O 7561   0.938   3.785   1.351 -0.0172  0.0987 -0.2686
 1872WAT     H1 7562   0.850   3.798   1.317 -0.4969 -1.3247  0.3237
 1872WAT     H2 7563   0.976   3.872   1.356 -1.0826  0.6456 -1.3408
 1872WAT    EPW 7564   0.931   3.798   1.347 -0.2210 -0.0169 -0.3319
 1873WAT      O 7565   1.221   4.043   1.022  0.1375  0.3000 -0.0957
 1873WAT     H1 7566   1.147   4.075   1.073  1.1587 -0.2596  1.8296
 1873WAT     H2 7567   1.288   4.021   1.087  1.7178  0.0442 -1.7123
 1873WAT    EPW 7568   1.220   4.045   1.037  0.4807  0.1925 -0.0550
 1874WAT      O 7569   3.316   0.251   2.640 -0.0983  0.1018 -0.0621
 1874WAT     H1 7570   3.397   0.274   2.594  0.9386 -1.3596  0.9284
 1874WAT     H2 7571   3.257   0.221   2.572  0.2749  0.9645 -0.7795
 1874WAT    EPW 7572   3.319   0.250   2.625  0.0877  0.0228 -0.0261
 1875WAT      O 7573   3.117   1.229   2.467 -0.5743 -0.2558 -0.2292
 1875WAT     H1 7574   3.178   1.199   2.400  0.8123  0.6081  0.5902
 1875WAT     H2 7575   3.137   1.174   2.543 -1.9202 -1.0183 -0.4018
 1875WAT    EPW 7576   3.128   1.218   2.468 -0.5689 -0.2424 -0.1439
 1876WAT      O 7577   3.533   2.024   2.081  0.4526 -0.2089  0.1372
 1876WAT     H1 7578   3.494   1.966   2.014 -0.6888  1.8026 -1.0564
 1876WAT     H2 7579   3.569   2.097   2.031  0.6399  0.7858  1.6637
 1876WAT    EPW 7580   3.532   2.026   2.065  0.3268  0.1876  0.1811
 1877WAT      O 7581   3.205   0.321   2.097  0.2425  0.2686 -0.3499
 1877WAT     H1 7582   3.111   0.335   2.085  0.5239  1.6280 -1.3150
 1877WAT     H2 7583   3.233   0.280   2.015  0.5763  0.3745 -0.2891
 1877WAT    EPW 7584   3.196   0.318   2.084  0.3237  0.4619 -0.4692
 1878WAT      O 7585   0.628   3.262   2.445  0.5094  0.2271 -0.3600
 1878WAT     H1 7586   0.591   3.347   2.421 -0.4015 -0.2780 -0.7679
 1878WAT     H2 7587   0.636   3.266   2.541 -0.1387  0.5226 -0.3148
 1878WAT    EPW 7588   0.624   3.274   2.455  0.3038  0.1994 -0.4078
 1879WAT      O 7589   3.508   1.009   0.879  0.2545 -0.1663 -0.6511
 1879WAT     H1 7590   3.513   1.058   0.961 -0.3601 -0.4293 -0.4524
 1879WAT     H2 7591   3.539   1.070   0.812  1.5802 -0.2170 -0.1212
 1879WAT    EPW 7592   3.513   1.023   0.881  0.3483 -0.2077 -0.5550
 1880WAT      O 7593   0.584   4.021   3.423  0.4402  0.1509 -0.0422
 1880WAT     H1 7594   0.528   4.075   3.367  1.4320 -0.3804 -1.5961
 1880WAT     H2 7595   0.667   4.069   3.427  0.8347 -0.5167 -0.1778
 1880WAT    EPW 7596   0.588   4.035   3.416  0.6231 -0.0072 -0.2651
 1881WAT      O 7597   3.117   0.215   3.064 -0.4890  0.0293 -0.1066
 1881WAT     H1 7598   3.130   0.164   2.984  0.6076  0.6596 -0.3468
 1881WAT     H2 7599   3.172   0.173   3.129  0.4147  0.8743 -0.3038
 1881WAT    EPW 7600   3.126   0.203   3.062 -0.2251  0.2239 -0.1643
 1882WAT      O 7601   2.732   2.833   1.025  0.3888 -0.3820  0.5229
 1882WAT     H1 7602   2.776   2.869   1.102 -0.1433  2.5992 -0.4539
 1882WAT     H2 7603   2.759   2.890   0.953 -2.0940 -0.7341 -0.7908
 1882WAT    EPW 7604   2.742   2.845   1.026 -0.0088 -0.0352  0.2208
 1883WAT      O 7605   2.812   0.642   2.913  0.2109  0.0822  0.2904
 1883WAT     H1 7606   2.876   0.608   2.976  1.8971 -0.0750 -1.4082
 1883WAT     H2 7607   2.752   0.569   2.898  0.1897 -0.0992  1.1894
 1883WAT    EPW 7608   2.812   0.628   2.920  0.4305  0.0375  0.1849
 1884WAT      O 7609   1.997   3.773   1.518 -0.3466  0.7642 -0.8117
 1884WAT     H1 7610   2.023   3.747   1.606  0.0394  2.4878 -0.3819
 1884WAT     H2 7611   1.960   3.861   1.529 -1.0413  0.6836 -2.2590
 1884WAT    EPW 7612   1.995   3.781   1.531 -0.3873  0.9809 -0.9459
 1885WAT      O 7613   0.699   1.822   0.202 -0.0757  0.3017 -0.5213
 1885WAT     H1 7614   0.737   1.743   0.164 -1.2248  0.2249 -1.5648
 1885WAT     H2 7615   0.716   1.890   0.136 -1.0111  0.4410 -0.6236
 1885WAT    EPW 7616   0.706   1.821   0.188 -0.3506  0.3100 -0.6725
 1886WAT      O 7617   2.523   0.133   2.876 -0.5073 -0.1583  0.3361
 1886WAT     H1 7618   2.508   0.054   2.825 -0.0365 -0.5667  0.8189
 1886WAT     H2 7619   2.450   0.191   2.853 -1.1146 -0.9146  0.3396
 1886WAT    EPW 7620   2.512   0.130   2.866 -0.5253 -0.3119  0.4002
 1887WAT      O 7621   2.070   1.506   1.149 -0.1190 -0.0288  0.6764
 1887WAT     H1 7622   2.112   1.429   1.110 -3.8119 -1.7906 -0.3035
 1887WAT     H2 7623   2.017   1.471   1.221 -1.6902  1.5703  0.3706
 1887WAT    EPW 7624   2.068   1.491   1.153 -0.8133 -0.0503  0.5069
 1888WAT      O 7625   1.510   0.966   0.065 -0.2740  0.5013  0.5843
 1888WAT     H1 7626   1.504   0.966   0.160  0.4799 -0.1789  0.6419
 1888WAT     H2 7627   1.509   1.058   0.040 -2.2492  0.6741  1.1194
 1888WAT    EPW 7628   1.509   0.978   0.074 -0.4351  0.4344  0.6625
 1889WAT      O 7629   0.644   2.932   1.608 -0.1539 -0.7314  0.2382
 1889WAT     H1 7630   0.565   2.982   1.628 -0.4009 -1.0941  0.1983
 1889WAT     H2 7631   0.675   2.967   1.525 -0.6462 -1.0214 -0.0749
 1889WAT    EPW 7632   0.637   2.943   1.600 -0.2514 -0.8175  0.1916
 1890WAT      O 7633   3.139   1.316   0.766  0.0967 -0.0820 -0.4310
 1890WAT     H1 7634   3.057   1.272   0.789 -0.0464  0.5225  0.2709
 1890WAT     H2 7635   3.190   1.250   0.720 -0.5090 -0.6727 -0.2672
 1890WAT    EPW 7636   3.135   1.302   0.763 -0.0020 -0.0802 -0.3168
 1891WAT      O 7637   2.167   0.528   1.667 -0.5614  0.2135  0.5216
 1891WAT     H1 7638   2.123   0.519   1.751  1.0462  1.6478  1.5763
 1891WAT     H2 7639   2.183   0.438   1.638 -2.0405 -0.2986  1.2299
 1891WAT    EPW 7640   2.163   0.515   1.674 -0.5444  0.3351  0.7542
 1892WAT      O 7641   1.715   0.500   1.246  0.6699 -0.0623 -0.0994
 1892WAT     H1 7642   1.707   0.504   1.151  0.8248 -0.0936 -0.1130
 1892WAT     H2 7643   1.780   0.432   1.262  0.9834  0.2620  0.0170
 1892WAT    EPW 7644   1.722   0.491   1.236  0.7317 -0.0236 -0.0859
 1893WAT      O 7645   1.844   4.053   0.501  0.3759 -0.5982 -0.0464
 1893WAT     H1 7646   1.938   4.040   0.511  0.5885 -0.5179 -1.6892
 1893WAT     H2 7647   1.823   4.013   0.417 -0.8506  0.3557 -0.2265
 1893WAT    EPW 7648   1.854   4.046   0.491  0.2422 -0.4618 -0.2869
 1894WAT      O 7649   0.656   3.045   2.912  0.2176 -0.1463 -0.2674
 1894WAT     H1 7650   0.668   2.975   2.976  1.0816  1.4507  1.4137
 1894WAT     H2 7651   0.744   3.078   2.896  0.0040 -0.3875 -2.2276
 1894WAT    EPW 7652   0.669   3.040   2.918  0.3034  0.0325 -0.3042
 1895WAT      O 7653   0.866   3.497   1.514  0.0288 -0.1292 -0.4859
 1895WAT     H1 7654   0.890   3.575   1.463  2.3926 -1.0387 -0.9218
 1895WAT     H2 7655   0.842   3.432   1.449  1.8130 -0.8978 -0.4436
 1895WAT    EPW 7656   0.866   3.499   1.499  0.5759 -0.3506 -0.5378
 1896WAT      O 7657   1.898   0.583   2.353 -0.2060  0.6022 -0.2376
 1896WAT     H1 7658   1.977   0.583   2.299  0.2750  0.3778  0.4484
 1896WAT     H2 7659   1.847   0.657   2.322  0.5099  1.0513 -0.3552
 1896WAT    EPW 7660   1.902   0.593   2.342 -0.0481  0.6318 -0.1627
 1897WAT      O 7661   3.504   0.798   0.151 -0.2182 -0.0596  0.0889
 1897WAT     H1 7662   3.501   0.869   0.087  0.4504  0.2387  0.3860
 1897WAT     H2 7663   3.570   0.825   0.215 -0.7155 -0.4593  0.7846
 1897WAT    EPW 7664   3.512   0.811   0.151 -0.1956 -0.0730  0.2199
 1898WAT      O 7665   1.661   4.265   2.326  0.1373 -0.1489  0.0621
 1898WAT     H1 7666   1.707   4.251   2.409  1.4770 -0.6402 -0.7372
 1898WAT     H2 7667   1.569   4.272   2.351  0.3801 -1.4839  1.4700
 1898WAT    EPW 7668   1.655   4.264   2.341  0.3461 -0.3897  0.1424
 1899WAT      O 7669   1.744   3.129   0.627  0.0838  0.0401  0.0888
 1899WAT     H1 7670   1.654   3.147   0.601  0.6360  1.7686 -0.7839
 1899WAT     H2 7671   1.757   3.180   0.707 -0.1947 -1.5600  1.1915
 1899WAT    EPW 7672   1.734   3.138   0.634  0.1199  0.0571  0.1191
 1900WAT      O 7673   2.269   2.375   3.696  0.0647  0.1463  0.7442
 1900WAT     H1 7674   2.340   2.317   3.668 -0.4086  0.4077 -1.1975
 1900WAT     H2 7675   2.216   2.321   3.755  1.2087 -0.4372  1.2639
 1900WAT    EPW 7676   2.271   2.360   3.700  0.1532  0.1038  0.5566
 1901WAT      O 7677   2.525   0.223   0.055  0.1572 -0.9948  0.3146
 1901WAT     H1 7678   2.498   0.195   0.142  0.8520  0.4324  1.0255
 1901WAT     H2 7679   2.506   0.317   0.053 -1.8279 -1.3561 -1.8470
 1901WAT    EPW 7680   2.519   0.232   0.066 -0.0130 -0.8542  0.1233
 1902WAT      O 7681   2.272   0.685   1.191 -0.1251  0.1471  0.2609
 1902WAT     H1 7682   2.324   0.763   1.174 -2.2825  1.4263 -0.9991
 1902WAT     H2 7683   2.229   0.667   1.107  0.1284 -2.2960  0.5770
 1902WAT    EPW 7684   2.273   0.693   1.178 -0.3762 -0.0064  0.1364
 1903WAT      O 7685   0.552   0.987   0.954 -0.4725 -0.4332  0.2355
 1903WAT     H1 7686   0.641   1.005   0.926  0.1398 -1.2535  1.5563
 1903WAT     H2 7687   0.529   1.061   1.011 -0.7912 -0.0216 -0.4212
 1903WAT    EPW 7688   0.560   0.999   0.958 -0.4338 -0.4871  0.3231
 1904WAT      O 7689   1.577   0.905   0.445 -0.1352 -0.0064  0.4132
 1904WAT     H1 7690   1.506   0.840   0.447  0.0046 -0.2814 -1.4339
 1904WAT     H2 7691   1.534   0.988   0.464 -1.3437  0.0732 -2.1823
 1904WAT    EPW 7692   1.562   0.907   0.447 -0.2762 -0.0322 -0.1727
 1905WAT      O 7693   1.248   3.064   1.999 -0.1314  0.3723 -0.3722
 1905WAT     H1 7694   1.232   3.002   1.928 -1.0273 -1.0837  1.0322
 1905WAT     H2 7695   1.339   3.090   1.989  0.3187 -1.3188 -0.8892
 1905WAT    EPW 7696   1.258   3.059   1.988 -0.1902 -0.0428 -0.2551
 1906WAT      O 7697   1.044   3.063   3.633  0.4661  0.0665  0.0181
 1906WAT     H1 7698   1.005   3.141   3.595  1.2467  0.3174 -0.2920
 1906WAT     H2 7699   1.055   3.083   3.726 -1.8651 -0.7140  0.5219
 1906WAT    EPW 7700   1.040   3.076   3.640  0.2616 -0.0033  0.0436
 1907WAT      O 7701   0.880   0.510   2.746  0.7391  0.0456 -0.3910
 1907WAT     H1 7702   0.893   0.604   2.762 -0.5368 -0.1902  2.5717
 1907WAT     H2 7703   0.843   0.476   2.827 -1.8367 -2.4595 -2.3877
 1907WAT    EPW 7704   0.876   0.518   2.759  0.2311 -0.3159 -0.2636
 1908WAT      O 7705   1.150   3.636   2.494 -0.2013 -0.3845  0.0922
 1908WAT     H1 7706   1.062   3.667   2.516 -0.1838 -0.1802 -0.1225
 1908WAT     H2 7707   1.141   3.597   2.407  0.2935  1.3468 -0.7818
 1908WAT    EPW 7708   1.137   3.635   2.485 -0.1337 -0.1292 -0.0514
 1909WAT      O 7709   3.190   2.868   3.511  0.3258 -0.3425 -0.2535
 1909WAT     H1 7710   3.204   2.859   3.605 -0.0362 -1.6352 -0.3086
 1909WAT     H2 7711   3.175   2.779   3.480  2.0406 -0.1406 -1.8109
 1909WAT    EPW 7712   3.189   2.855   3.520  0.5043 -0.4864 -0.4662
 1910WAT      O 7713   0.676   1.184   1.530 -0.0967  0.0051  0.6575
 1910WAT     H1 7714   0.661   1.212   1.620 -2.1121  2.6144 -0.3386
 1910WAT     H2 7715   0.588   1.176   1.492  0.6888 -0.9002 -1.1337
 1910WAT    EPW 7716   0.662   1.187   1.537 -0.2589  0.2298  0.2898
 1911WAT      O 7717   0.239   0.710   2.820 -0.5383  0.1332  0.0731
 1911WAT     H1 7718   0.224   0.633   2.765 -1.9162  1.5994 -1.7667
 1911WAT     H2 7719   0.310   0.757   2.776 -0.9560  0.8127  0.1062
 1911WAT    EPW 7720   0.247   0.706   2.807 -0.7751  0.4162 -0.1652
 1912WAT      O 7721   2.606   3.470   1.881 -0.1170 -0.5716 -0.0685
 1912WAT     H1 7722   2.688   3.491   1.835  0.3884  0.1002  1.0939
 1912WAT     H2 7723   2.563   3.554   1.894  0.5770 -0.5036  2.1618
 1912WAT    EPW 7724   2.611   3.484   1.876  0.0412 -0.4740  0.3789
 1913WAT      O 7725   1.608   1.406   2.872 -0.4495 -0.0028 -0.2114
 1913WAT     H1 7726   1.514   1.392   2.858 -0.6553  1.4291 -0.4971
 1913WAT     H2 7727   1.611   1.478   2.936  0.4484 -0.0396 -0.2089
 1913WAT    EPW 7728   1.596   1.414   2.878 -0.3582  0.1812 -0.2487
 1914WAT      O 7729   3.396   3.808   3.287  0.0049  0.1381  0.0683
 1914WAT     H1 7730   3.330   3.843   3.228 -0.4827 -0.7564  0.0701
 1914WAT     H2 7731   3.431   3.884   3.333 -1.8410  0.5207  0.9185
 1914WAT    EPW 7732   3.392   3.822   3.286 -0.3029  0.0706  0.1807
 1915WAT      O 7733   3.390   0.735   1.830 -0.0967 -0.1962 -0.0616
 1915WAT     H1 7734   3.362   0.690   1.910 -1.8644 -0.2500 -0.6658
 1915WAT     H2 7735   3.429   0.666   1.776 -0.1054 -0.4243  0.2213
 1915WAT    EPW 7736   3.391   0.720   1.833 -0.3310 -0.2334 -0.1040
 1916WAT      O 7737   2.199   3.499   3.255  0.2041 -0.6698 -0.0228
 1916WAT     H1 7738   2.271   3.452   3.297 -0.6557 -1.1251  1.0253
 1916WAT     H2 7739   2.220   3.499   3.162  0.8644 -2.0214  0.1078
 1916WAT    EPW 7740   2.211   3.493   3.249  0.1778 -0.9081  0.1327
 1917WAT      O 7741   3.142   3.257   1.671  0.1799 -0.1203  0.1276
 1917WAT     H1 7742   3.140   3.173   1.717 -0.4267 -1.1706 -1.6770
 1917WAT     H2 7743   3.061   3.257   1.619  0.1009  1.6590  0.1880
 1917WAT    EPW 7744   3.131   3.246   1.670  0.0895 -0.0241 -0.1024
 1918WAT      O 7745   1.631   4.139   2.653  0.1084 -0.2083 -0.4012
 1918WAT     H1 7746   1.577   4.060   2.645  1.1768 -0.7927 -2.1915
 1918WAT     H2 7747   1.580   4.207   2.608  0.4206 -0.5219 -1.2268
 1918WAT    EPW 7748   1.617   4.138   2.646  0.2905 -0.3268 -0.7462
 1919WAT      O 7749   3.349   3.227   2.214 -0.2842  0.2886 -0.1839
 1919WAT     H1 7750   3.372   3.195   2.301 -1.9400  0.1169  0.2229
 1919WAT     H2 7751   3.379   3.318   2.213  1.7153 -0.3156 -0.2589
 1919WAT    EPW 7752   3.356   3.235   2.226 -0.2389  0.1863 -0.1401
 1920WAT      O 7753   0.844   3.086   2.379  0.1199  0.2860  0.1177
 1920WAT     H1 7754   0.787   3.163   2.383 -0.8284 -0.2830 -1.4853
 1920WAT     H2 7755   0.890   3.094   2.296  1.5460  0.1370  0.8672
 1920WAT    EPW 7756   0.842   3.097   2.368  0.1830  0.1913  0.0051
 1921WAT      O 7757   3.348   1.595   2.258 -0.1711 -0.2837 -0.1628
 1921WAT     H1 7758   3.348   1.542   2.179 -1.7009 -1.0262  0.3132
 1921WAT     H2 7759   3.287   1.666   2.240 -0.2562 -0.2543  0.2315
 1921WAT    EPW 7760   3.340   1.598   2.245 -0.3841 -0.3777 -0.0480
 1922WAT      O 7761   2.779   2.341   3.765 -0.3352  0.1580 -0.5470
 1922WAT     H1 7762   2.756   2.433   3.773 -0.2116  0.0956  0.7155
 1922WAT     H2 7763   2.701   2.294   3.792  1.1109 -0.0541  4.0553
 1922WAT    EPW 7764   2.766   2.347   3.769 -0.1282  0.1218  0.2265
 1923WAT      O 7765   1.188   4.081   0.359  0.1111 -0.2887 -0.1549
 1923WAT     H1 7766   1.126   4.145   0.393 -0.6819 -1.5036  0.7650
 1923WAT     H2 7767   1.256   4.134   0.316 -1.3857  1.0931 -0.9363
 1923WAT    EPW 7768   1.189   4.097   0.358 -0.1909 -0.2667 -0.1366
 1924WAT      O 7769   3.588   0.283   2.483 -0.1899  0.0245  0.0942
 1924WAT     H1 7770   3.670   0.236   2.471  0.0570  0.7602 -1.2149
 1924WAT     H2 7771   3.537   0.264   2.405  0.1030  2.2638 -0.7030
 1924WAT    EPW 7772   3.592   0.275   2.471 -0.1187  0.4169 -0.1836
 1925WAT      O 7773   1.062   1.529   3.749  0.4390 -0.0597 -0.7203
 1925WAT     H1 7774   1.103   1.589   3.687  1.4992 -1.7303 -1.7285
 1925WAT     H2 7775   1.130   1.465   3.769 -0.8896 -1.4465 -0.4271
 1925WAT    EPW 7776   1.076   1.528   3.743  0.4036 -0.4630 -0.8146
 1926WAT      O 7777   1.798   1.742   1.824 -0.0263 -0.3787  0.0552
 1926WAT     H1 7778   1.805   1.822   1.875  0.3043 -0.8162  0.7090
 1926WAT     H2 7779   1.876   1.742   1.768  0.1200 -0.3735  0.2556
 1926WAT    EPW 7780   1.809   1.753   1.823  0.0366 -0.4357  0.1678
 1927WAT      O 7781   2.147   0.462   0.594 -0.2457 -0.4927 -0.3159
 1927WAT     H1 7782   2.140   0.402   0.519 -0.6246 -0.4027 -0.3565
 1927WAT     H2 7783   2.211   0.527   0.566  0.2757 -0.9617 -0.2153
 1927WAT    EPW 7784   2.154   0.462   0.580 -0.2269 -0.5427 -0.3080
 1928WAT      O 7785   3.534   3.796   0.497  0.4077 -0.3539  0.0481
 1928WAT     H1 7786   3.551   3.795   0.403 -0.7343  0.6242 -0.1958
 1928WAT     H2 7787   3.441   3.779   0.505  0.3857  0.1134  0.9699
 1928WAT    EPW 7788   3.524   3.794   0.486  0.2542 -0.1633  0.1375
 1929WAT      O 7789   3.274   1.490   1.788  0.2975 -0.2197 -0.2430
 1929WAT     H1 7790   3.226   1.535   1.718 -0.2942  0.5571  0.6301
 1929WAT     H2 7791   3.293   1.404   1.752  0.6258  0.4025 -1.6143
 1929WAT    EPW 7792   3.270   1.485   1.774  0.2628 -0.0352 -0.3087
 1930WAT      O 7793   3.685   2.279   2.085 -0.3335  0.0778  1.0055
 1930WAT     H1 7794   3.737   2.204   2.111 -0.6892  0.1036  1.8016
 1930WAT     H2 7795   3.711   2.295   1.994  0.3718 -0.4690  1.0987
 1930WAT    EPW 7796   3.696   2.271   2.076 -0.2874  0.0091  1.1228
 1931WAT      O 7797   3.542   2.300   2.391  0.5428 -0.1489 -0.5907
 1931WAT     H1 7798   3.484   2.288   2.316 -1.2071  0.3317  0.6004
 1931WAT     H2 7799   3.544   2.215   2.435 -2.2397  0.6076  1.3002
 1931WAT    EPW 7800   3.535   2.287   2.387 -0.0550  0.0142 -0.1842
 1932WAT      O 7801   1.878   0.359   2.196 -0.5799  0.1182 -0.3702
 1932WAT     H1 7802   1.796   0.404   2.174 -0.8052  0.0207  0.2472
 1932WAT     H2 7803   1.908   0.401   2.276 -0.7677 -0.7921  0.1857
 1932WAT    EPW 7804   1.871   0.370   2.203 -0.6344 -0.0147 -0.2154
 1933WAT      O 7805   2.196   3.609   0.403  0.7857  1.0153 -0.1943
 1933WAT     H1 7806   2.154   3.545   0.346  0.4354  1.6473 -0.6573
 1933WAT     H2 7807   2.126   3.669   0.427  0.7932  0.4423  1.3828
 1933WAT    EPW 7808   2.181   3.608   0.399  0.7404  1.0231 -0.0473
 1934WAT      O 7809   1.040   0.802   1.585 -0.1001 -0.3518 -0.3809
 1934WAT     H1 7810   0.995   0.868   1.532  0.0017  0.0245 -0.0042
 1934WAT     H2 7811   1.131   0.832   1.589 -0.3929  0.4443  1.2393
 1934WAT    EPW 7812   1.046   0.815   1.578 -0.1253 -0.1972 -0.1175
 1935WAT      O 7813   2.912   0.252   0.226  0.2906 -0.0719 -0.0283
 1935WAT     H1 7814   2.899   0.345   0.208 -2.6659 -0.4976 -0.5145
 1935WAT     H2 7815   2.938   0.215   0.142 -0.2023  0.0601 -0.2430
 1935WAT    EPW 7816   2.914   0.259   0.213 -0.1643 -0.1106 -0.1208
 1936WAT      O 7817   3.255   1.107   0.640  0.7230  0.8178  0.1068
 1936WAT     H1 7818   3.312   1.032   0.622 -1.3899 -0.8287 -0.0353
 1936WAT     H2 7819   3.233   1.142   0.554 -0.6084 -0.2577 -0.0246
 1936WAT    EPW 7820   3.260   1.102   0.626  0.2688  0.4588  0.0707
 1937WAT      O 7821   2.653   2.006   2.795 -0.3314 -0.4366  0.5970
 1937WAT     H1 7822   2.735   2.036   2.833 -0.2194  0.7752 -0.5243
 1937WAT     H2 7823   2.679   1.956   2.718 -0.6305  1.0898 -0.5437
 1937WAT    EPW 7824   2.667   2.003   2.790 -0.3561 -0.0755  0.2987
 1938WAT      O 7825   0.930   3.684   3.756  0.1770 -0.6550  0.3576
 1938WAT     H1 7826   0.960   3.724   3.838 -1.7732  0.8288  0.4440
 1938WAT     H2 7827   0.889   3.602   3.783 -0.6286 -0.0825  0.9337
 1938WAT    EPW 7828   0.928   3.679   3.770 -0.1865 -0.3838  0.4450
 1939WAT      O 7829   2.364   0.756   1.453 -0.1643  0.0996 -0.0563
 1939WAT     H1 7830   2.306   0.750   1.377 -0.3933 -2.3458  0.2123
 1939WAT     H2 7831   2.370   0.666   1.485 -0.2367  1.0676  2.9557
 1939WAT    EPW 7832   2.357   0.743   1.447 -0.2040 -0.0953  0.3764
 1940WAT      O 7833   2.309   4.029   3.097 -0.1212 -0.2471 -0.3526
 1940WAT     H1 7834   2.318   3.934   3.093 -0.7880 -0.2868 -1.0367
 1940WAT     H2 7835   2.279   4.054   3.010  0.9497  0.6948 -0.4806
 1940WAT    EPW 7836   2.306   4.020   3.085 -0.0679 -0.1281 -0.4597
 1941WAT      O 7837   1.914   1.370   2.867  0.1663 -0.2313  0.4273
 1941WAT     H1 7838   1.978   1.316   2.819 -0.0217  0.3289 -0.4828
 1941WAT     H2 7839   1.829   1.343   2.832 -0.1911 -1.3901  2.0505
 1941WAT    EPW 7840   1.912   1.359   2.856  0.0944 -0.3102  0.5214
 1942WAT      O 7841   1.227   1.318   1.811  0.6236  0.5393 -0.6000
 1942WAT     H1 7842   1.193   1.374   1.881  1.1731  0.1889 -0.0452
 1942WAT     H2 7843   1.299   1.269   1.852  0.5440 -0.1270 -1.2384
 1942WAT    EPW 7844   1.232   1.319   1.826  0.6855  0.4052 -0.6110
 1943WAT      O 7845   3.387   1.943   1.853 -0.3531  0.4499 -0.1058
 1943WAT     H1 7846   3.457   2.000   1.821  0.7608  0.0662  1.5190
 1943WAT     H2 7847   3.392   1.865   1.797  3.9367 -1.8152  2.8893
 1943WAT    EPW 7848   3.397   1.941   1.841  0.3596  0.1005  0.5035
 1944WAT      O 7849   2.555   0.063   1.067 -0.1300  0.0246 -0.1222
 1944WAT     H1 7850   2.544   0.116   1.146 -0.2857  0.9675 -0.7700
 1944WAT     H2 7851   2.634   0.096   1.026  2.0921 -2.8330  1.4341
 1944WAT    EPW 7852   2.564   0.074   1.072  0.1425 -0.2280 -0.0023
 1945WAT      O 7853   2.709   0.063   3.286  0.1051 -0.0997  0.5526
 1945WAT     H1 7854   2.710  -0.029   3.313  0.4150 -0.3204 -0.1895
 1945WAT     H2 7855   2.744   0.111   3.361 -0.2150 -0.5689  1.0064
 1945WAT    EPW 7856   2.713   0.057   3.299  0.1037 -0.1907  0.5146
 1946WAT      O 7857   1.545   0.673   1.434 -0.0227  0.3981  0.4939
 1946WAT     H1 7858   1.463   0.671   1.385 -0.9801  1.3982  1.9553
 1946WAT     H2 7859   1.611   0.645   1.372 -1.2666  0.9729 -1.1560
 1946WAT    EPW 7860   1.543   0.669   1.420 -0.3131  0.6058  0.4691
 1947WAT      O 7861   2.580   0.689   1.718 -0.3758 -0.2236 -0.2840
 1947WAT     H1 7862   2.632   0.667   1.641  1.0204  0.2923  0.4643
 1947WAT     H2 7863   2.543   0.606   1.747 -0.8830 -0.4290 -1.4623
 1947WAT    EPW 7864   2.582   0.675   1.712 -0.2585 -0.1826 -0.3407
 1948WAT      O 7865   0.341   2.419   2.021 -0.2555 -0.0188  0.6784
 1948WAT     H1 7866   0.420   2.473   2.027  0.6599 -1.4022  1.2480
 1948WAT     H2 7867   0.270   2.481   2.038  0.6944  1.1893  0.4581
 1948WAT    EPW 7868   0.342   2.435   2.024 -0.0095 -0.0419  0.7245
 1949WAT      O 7869   0.679   2.780   1.060  0.1921  0.2760  0.2783
 1949WAT     H1 7870   0.640   2.732   0.988  1.4889  1.7233 -1.4860
 1949WAT     H2 7871   0.621   2.856   1.072  0.3550  0.4053  0.2575
 1949WAT    EPW 7872   0.666   2.784   1.052  0.3846  0.4839  0.0429
 1950WAT      O 7873   0.264   1.371   2.727  0.3955 -0.0349  0.0575
 1950WAT     H1 7874   0.310   1.406   2.651  0.2495 -0.5505 -0.2692
 1950WAT     H2 7875   0.328   1.312   2.768  0.2429 -0.2698 -0.0428
 1950WAT    EPW 7876   0.279   1.367   2.723  0.3561 -0.1339  0.0012
 1951WAT      O 7877   0.142   0.372   1.333  0.2674  0.5599  0.1501
 1951WAT     H1 7878   0.164   0.411   1.249 -0.0325  2.0522  0.7265
 1951WAT     H2 7879   0.139   0.278   1.316 -0.1857  0.8571 -1.5863
 1951WAT    EPW 7880   0.145   0.364   1.320  0.1681  0.7959 -0.0029
 1952WAT      O 7881   0.932   1.615   2.234  0.8984 -0.1286  0.1260
 1952WAT     H1 7882   0.919   1.534   2.283  0.1961 -0.4697 -0.6059
 1952WAT     H2 7883   0.850   1.663   2.243  0.9999  0.1078 -0.1542
 1952WAT    EPW 7884   0.920   1.610   2.241  0.8192 -0.1424 -0.0075
 1953WAT      O 7885   1.131   0.243   1.686  0.0593 -0.2237  0.3037
 1953WAT     H1 7886   1.126   0.319   1.628 -3.0318 -0.1369  0.5122
 1953WAT     H2 7887   1.139   0.168   1.628  1.7867  0.1153  0.0463
 1953WAT    EPW 7888   1.131   0.243   1.671 -0.1206 -0.1675  0.2973
 1954WAT      O 7889   1.597   1.743   2.919 -0.0382  0.1157 -0.4641
 1954WAT     H1 7890   1.592   1.836   2.897 -1.0647  0.4062  0.8757
 1954WAT     H2 7891   1.506   1.714   2.920  0.0615 -0.2876  1.5057
 1954WAT    EPW 7892   1.585   1.751   2.916 -0.1605  0.1008 -0.0276
 1955WAT      O 7893   3.429   1.781   0.602  0.1606 -0.4180 -0.3582
 1955WAT     H1 7894   3.395   1.694   0.580 -0.4876 -0.6189  1.3155
 1955WAT     H2 7895   3.377   1.809   0.678  1.3521  0.8102  0.0459
 1955WAT    EPW 7896   3.418   1.773   0.609  0.2323 -0.2825 -0.0842
 1956WAT      O 7897   2.602   2.999   2.786 -0.5202  0.5084 -0.3267
 1956WAT     H1 7898   2.593   2.946   2.865  1.1763  1.1411  0.3572
 1956WAT     H2 7899   2.643   3.080   2.817 -1.3569  1.4581 -1.6234
 1956WAT    EPW 7900   2.607   3.003   2.801 -0.4068  0.7171 -0.4075
 1957WAT      O 7901   0.328   3.139   2.608 -0.1641 -0.5269  0.2898
 1957WAT     H1 7902   0.394   3.208   2.599 -1.5117  0.6879 -0.8727
 1957WAT     H2 7903   0.367   3.076   2.668  1.7888  0.4432  0.1165
 1957WAT    EPW 7904   0.342   3.140   2.615 -0.0843 -0.2387  0.1137
 1958WAT      O 7905   3.495   0.859   2.526 -0.0515 -0.3210  0.2682
 1958WAT     H1 7906   3.406   0.893   2.533 -0.5143 -1.4667  0.1158
 1958WAT     H2 7907   3.508   0.846   2.431  1.6111  3.2211 -0.1392
 1958WAT    EPW 7908   3.485   0.862   2.514  0.1068 -0.0050  0.1944
 1959WAT      O 7909   2.908   0.551   0.188  0.0979 -0.1140 -0.2971
 1959WAT     H1 7910   2.924   0.585   0.276 -1.1485  2.1964 -0.8798
 1959WAT     H2 7911   2.816   0.570   0.171  0.7551  1.2598 -2.7671
 1959WAT    EPW 7912   2.898   0.558   0.197  0.0202  0.3719 -0.6997
 1960WAT      O 7913   1.702   1.363   0.612 -0.2260  0.3794  0.3942
 1960WAT     H1 7914   1.630   1.424   0.598 -3.1185 -2.1063  2.9391
 1960WAT     H2 7915   1.702   1.307   0.534 -0.6562  0.7362  0.1361
 1960WAT    EPW 7916   1.693   1.364   0.600 -0.6642  0.0986  0.6958
 1961WAT      O 7917   1.240   2.504   3.569  0.5787  0.0833  0.1506
 1961WAT     H1 7918   1.218   2.552   3.649 -1.0833  0.5034 -0.5098
 1961WAT     H2 7919   1.286   2.569   3.515  1.0166  0.0226  0.4405
 1961WAT    EPW 7920   1.243   2.519   3.572  0.4172  0.1307  0.1017
 1962WAT      O 7921   0.790   4.230   3.472 -0.5667  0.3718 -0.0757
 1962WAT     H1 7922   0.762   4.287   3.544  0.0020  0.7392 -0.1360
 1962WAT     H2 7923   0.849   4.167   3.514  0.8542  1.4202 -0.4238
 1962WAT    EPW 7924   0.794   4.229   3.487 -0.3043  0.5586 -0.1296
 1963WAT      O 7925   3.367   4.290   2.356 -0.4144 -0.0961 -0.0461
 1963WAT     H1 7926   3.449   4.242   2.367 -0.2794 -0.1101 -1.0452
 1963WAT     H2 7927   3.303   4.224   2.331  0.3297  0.4493 -4.1038
 1963WAT    EPW 7928   3.369   4.275   2.354 -0.2985 -0.0260 -0.7131
 1964WAT      O 7929   3.680   0.623   0.037  0.2302  0.1717  0.0908
 1964WAT     H1 7930   3.602   0.670   0.068 -0.8318 -0.7871 -1.0271
 1964WAT     H2 7931   3.672   0.536   0.075  1.2583  0.3352  0.7107
 1964WAT    EPW 7932   3.669   0.618   0.046  0.2257  0.0668  0.0251
 1965WAT      O 7933   1.744   1.463   3.702  0.0107 -0.3940  0.4836
 1965WAT     H1 7934   1.720   1.378   3.664 -2.3290  0.5043 -0.2179
 1965WAT     H2 7935   1.796   1.440   3.779 -0.9606 -2.4987  0.5948
 1965WAT    EPW 7936   1.747   1.449   3.707 -0.4260 -0.5531  0.4057
 1966WAT      O 7937   0.178   0.458   1.709  0.1078  0.0247 -0.4441
 1966WAT     H1 7938   0.209   0.368   1.711  0.9665  0.3138 -0.6315
 1966WAT     H2 7939   0.245   0.509   1.753  0.1993  0.7381 -1.3689
 1966WAT    EPW 7940   0.191   0.453   1.715  0.2331  0.1569 -0.5908
 1967WAT      O 7941   2.520   2.111   1.046  0.1064  0.0405  0.6037
 1967WAT     H1 7942   2.534   2.075   1.134 -0.4421 -0.7574  0.3725
 1967WAT     H2 7943   2.600   2.161   1.028  0.0529  0.5598  1.7164
 1967WAT    EPW 7944   2.532   2.113   1.055  0.0270  0.0037  0.7200
 1968WAT      O 7945   1.647   3.433   2.772 -0.2119  0.4540 -0.2469
 1968WAT     H1 7946   1.742   3.430   2.774 -0.1985 -0.2539 -1.5142
 1968WAT     H2 7947   1.623   3.485   2.849  1.2242  1.4269 -0.4289
 1968WAT    EPW 7948   1.656   3.439   2.783 -0.0207  0.4890 -0.4381
 1969WAT      O 7949   1.454   0.849   2.591 -0.0272 -0.3705  0.1313
 1969WAT     H1 7950   1.480   0.833   2.681 -1.2020  1.4095  0.8404
 1969WAT     H2 7951   1.365   0.883   2.597 -0.4767 -1.0817 -1.7810
 1969WAT    EPW 7952   1.446   0.851   2.604 -0.2414 -0.2295 -0.0274
 1970WAT      O 7953   0.568   3.764   3.275 -0.4083 -0.1818  0.6409
 1970WAT     H1 7954   0.481   3.783   3.309 -1.0233 -0.8193 -0.5047
 1970WAT     H2 7955   0.624   3.832   3.313 -1.2800 -0.1281  1.8751
 1970WAT    EPW 7956   0.564   3.776   3.285 -0.6043 -0.2588  0.6526
 1971WAT      O 7957   2.332   2.970   1.250  0.1786 -0.1187 -0.1526
 1971WAT     H1 7958   2.266   2.947   1.316 -0.5594 -0.7801 -1.0722
 1971WAT     H2 7959   2.356   2.885   1.211  0.9240  0.2156 -0.4345
 1971WAT    EPW 7960   2.326   2.956   1.253  0.1796 -0.1619 -0.3110
 1972WAT      O 7961   0.512   3.488   2.277  0.0483 -0.3874 -0.1277
 1972WAT     H1 7962   0.594   3.477   2.230 -0.0392  0.8483 -0.6255
 1972WAT     H2 7963   0.446   3.445   2.222  0.0903  0.2358 -0.6784
 1972WAT    EPW 7964   0.514   3.481   2.264  0.0423 -0.1422 -0.2660
 1973WAT      O 7965   0.317   3.787   3.419 -0.0817 -0.4765 -0.6398
 1973WAT     H1 7966   0.235   3.832   3.396  0.1003  0.0139 -0.3414
 1973WAT     H2 7967   0.289   3.700   3.446 -1.0037  0.8166  3.2635
 1973WAT    EPW 7968   0.302   3.781   3.420 -0.1793 -0.2412 -0.0857
 1974WAT      O 7969   3.221   1.076   3.831 -0.2304  0.3242  0.6702
 1974WAT     H1 7970   3.210   0.983   3.852  0.1997  0.0200 -0.4179
 1974WAT     H2 7971   3.316   1.089   3.831 -0.2927  1.1501  2.3686
 1974WAT    EPW 7972   3.232   1.065   3.834 -0.1819  0.3930  0.7507
 1975WAT      O 7973   2.901   1.095   1.648 -0.2920 -0.4497  0.1447
 1975WAT     H1 7974   2.925   1.068   1.737 -1.1671 -1.1604  0.1721
 1975WAT     H2 7975   2.807   1.081   1.644 -0.4400  0.6860 -0.5220
 1975WAT    EPW 7976   2.892   1.090   1.659 -0.4270 -0.3937  0.0604
 1976WAT      O 7977   1.219   0.233   3.519  0.3017 -0.7835 -0.0970
 1976WAT     H1 7978   1.251   0.316   3.554  1.0181 -0.8466 -0.6024
 1976WAT     H2 7979   1.125   0.234   3.540  0.1188  0.5621 -0.8993
 1976WAT    EPW 7980   1.211   0.244   3.527  0.3720 -0.6144 -0.2695
 1977WAT      O 7981   3.030   2.808   2.523 -0.0447 -0.4129  0.6849
 1977WAT     H1 7982   2.957   2.790   2.583  1.2851 -1.9465  1.9408
 1977WAT     H2 7983   3.093   2.857   2.576  0.3298 -0.1288 -0.0191
 1977WAT    EPW 7984   3.029   2.812   2.538  0.1801 -0.5777  0.7577
 1978WAT      O 7985   3.334   2.532   3.741  0.2142 -0.5401 -0.0126
 1978WAT     H1 7986   3.388   2.607   3.765 -0.8471  0.2276  0.0383
 1978WAT     H2 7987   3.390   2.480   3.682  0.9138  0.3354 -0.1391
 1978WAT    EPW 7988   3.349   2.535   3.736  0.1665 -0.3234 -0.0226
 1979WAT      O 7989   1.625   4.054   2.919 -0.2318 -0.2814  0.1580
 1979WAT     H1 7990   1.646   4.040   2.827  1.0213 -1.6647  0.6170
 1979WAT     H2 7991   1.615   4.149   2.927  0.5500 -0.0624 -1.2215
 1979WAT    EPW 7992   1.627   4.065   2.908  0.0366 -0.4349  0.0366
 1980WAT      O 7993   2.873   1.724   0.777 -0.5585  0.4738  0.1598
 1980WAT     H1 7994   2.842   1.814   0.771 -1.5609  0.1087 -0.2558
 1980WAT     H2 7995   2.837   1.692   0.860 -1.1050  0.1200 -0.2122
 1980WAT    EPW 7996   2.864   1.732   0.787 -0.7628  0.3790  0.0559
 1981WAT      O 7997   1.226   3.317   2.399 -0.1563  0.1049 -0.1204
 1981WAT     H1 7998   1.317   3.342   2.385 -0.0881 -0.0626  0.0335
 1981WAT     H2 7999   1.230   3.230   2.438 -0.3941 -0.1051 -0.5586
 1981WAT    EPW 8000   1.239   3.309   2.402 -0.1786  0.0551 -0.1579
 1982WAT      O 8001   0.735   2.734   0.102 -0.3784  0.1665 -0.3637
 1982WAT     H1 8002   0.799   2.803   0.084  0.2227 -0.0563  0.8025
 1982WAT     H2 8003   0.650   2.778   0.099 -0.0942  0.7025 -0.8010
 1982WAT    EPW 8004   0.732   2.749   0.099 -0.2617  0.2078 -0.2676
   3.71774   4.38345   3.84449
