;
;   File topol.top  was generated
;   By user: sompriya (1002)
;   On host:raylab2-Precision-5860-Tower 
;   At date:Thu. January  4 17:25:20 2025 
;
;   This is a standalone topology file
;
;   Created by:
;   ParmEd:       convert.py, VERSION4.3.0 
;   Executable:   convert.py
;   Library dir:  /home/sompriya/gromacs-2024.3/install_single_cuda/share/gromacs/top
;   Command line:
;     convert.py
;

[ defaults ]
; nbfunc        comb-rule       gen-pairs       fudgeLJ fudgeQQ
1               2               yes             0.5          0.83333333  

[ atomtypes ]
; name    at.num    mass    charge ptype  sigma      epsilon
HO             1   1.008000  0.00000000  A              0              0
OH             8  16.000000  0.00000000  A     0.30664734      0.8803136
CI             6  12.010000  0.00000000  A     0.33996695      0.4577296
H1             1   1.008000  0.00000000  A      0.2471353      0.0656888
CT             6  12.010000  0.00000000  A     0.33996695      0.4577296
OS             8  16.000000  0.00000000  A     0.30000123        0.71128
H2             1   1.008000  0.00000000  A     0.22931733      0.0656888
N*             7  14.010000  0.00000000  A     0.32499985        0.71128
C4             6  12.010000  0.00000000  A     0.33996695       0.359824
H4             1   1.008000  0.00000000  A     0.25105526        0.06276
HA             1   1.008000  0.00000000  A     0.25996425        0.06276
CA             6  12.010000  0.00000000  A     0.33996695       0.359824
N2             7  14.010000  0.00000000  A     0.32499985        0.71128
H              1   1.008000  0.00000000  A     0.10690785      0.0656888
NC             7  14.010000  0.00000000  A     0.32499985        0.71128
C              6  12.010000  0.00000000  A     0.33996695       0.359824
O              8  16.000000  0.00000000  A     0.29599219        0.87864
P             15  30.970000  0.00000000  A     0.37417746         0.8368
O2             8  16.000000  0.00000000  A     0.29599219        0.87864
Na+           11  22.990000  0.00000000  A     0.24392807     0.36584603
Cl-           17  35.450000  0.00000000  A      0.4477657     0.14891274
OW             8  16.000000  0.00000000  A     0.31507524       0.635968
HW             1   1.008000  0.00000000  A              0              0


[ moleculetype ]
; Name            nrexcl
system1          3

[ atoms ]
;   nr       type  resnr residue  atom   cgnr    charge       mass  typeB    chargeB      massB
; residue    1 C5 rtp C5 q -0.3
    1         HO      1     C5   HO5'      1 0.42950000   1.008000   ; qtot 0.429500
    2         OH      1     C5    O5'      2 -0.62230000  16.000000   ; qtot -0.192800
    3         CI      1     C5    C5'      3 0.05580000  12.010000   ; qtot -0.137000
    4         H1      1     C5    H5'      4 0.06790000   1.008000   ; qtot -0.069100
    5         H1      1     C5   H5''      5 0.06790000   1.008000   ; qtot -0.001200
    6         CT      1     C5    C4'      6 0.10650000  12.010000   ; qtot 0.105300
    7         H1      1     C5    H4'      7 0.11740000   1.008000   ; qtot 0.222700
    8         OS      1     C5    O4'      8 -0.35480000  16.000000   ; qtot -0.132100
    9         CT      1     C5    C1'      9 0.00660000  12.010000   ; qtot -0.125500
   10         H2      1     C5    H1'     10 0.20290000   1.008000   ; qtot 0.077400
   11         N*      1     C5     N1     11 -0.04840000  14.010000   ; qtot 0.029000
   12         C4      1     C5     C6     12 0.00530000  12.010000   ; qtot 0.034300
   13         H4      1     C5     H6     13 0.19580000   1.008000   ; qtot 0.230100
   14         C4      1     C5     C5     14 -0.52150000  12.010000   ; qtot -0.291400
   15         HA      1     C5     H5     15 0.19280000   1.008000   ; qtot -0.098600
   16         CA      1     C5     C4     16 0.81850000  12.010000   ; qtot 0.719900
   17         N2      1     C5     N4     17 -0.95300000  14.010000   ; qtot -0.233100
   18          H      1     C5    H41     18 0.42340000   1.008000   ; qtot 0.190300
   19          H      1     C5    H42     19 0.42340000   1.008000   ; qtot 0.613700
   20         NC      1     C5     N3     20 -0.75840000  14.010000   ; qtot -0.144700
   21          C      1     C5     C2     21 0.75380000  12.010000   ; qtot 0.609100
   22          O      1     C5     O2     22 -0.62520000  16.000000   ; qtot -0.016100
   23         CT      1     C5    C3'     23 0.20220000  12.010000   ; qtot 0.186100
   24         H1      1     C5    H3'     24 0.06150000   1.008000   ; qtot 0.247600
   25         CT      1     C5    C2'     25 0.06700000  12.010000   ; qtot 0.314600
   26         H1      1     C5    H2'     26 0.09720000   1.008000   ; qtot 0.411800
   27         OH      1     C5    O2'     27 -0.61390000  16.000000   ; qtot -0.202100
   28         HO      1     C5   HO2'     28 0.41860000   1.008000   ; qtot 0.216500
   29         OS      1     C5    O3'     29 -0.52460000  16.000000   ; qtot -0.308100
; residue    2 C rtp C q -1.0
   30          P      2      C      P     30 1.16620000  30.970000   ; qtot 0.858100
   31         O2      2      C    OP1     31 -0.77600000  16.000000   ; qtot 0.082100
   32         O2      2      C    OP2     32 -0.77600000  16.000000   ; qtot -0.693900
   33         OS      2      C    O5'     33 -0.49890000  16.000000   ; qtot -1.192800
   34         CI      2      C    C5'     34 0.05580000  12.010000   ; qtot -1.137000
   35         H1      2      C    H5'     35 0.06790000   1.008000   ; qtot -1.069100
   36         H1      2      C   H5''     36 0.06790000   1.008000   ; qtot -1.001200
   37         CT      2      C    C4'     37 0.10650000  12.010000   ; qtot -0.894700
   38         H1      2      C    H4'     38 0.11740000   1.008000   ; qtot -0.777300
   39         OS      2      C    O4'     39 -0.35480000  16.000000   ; qtot -1.132100
   40         CT      2      C    C1'     40 0.00660000  12.010000   ; qtot -1.125500
   41         H2      2      C    H1'     41 0.20290000   1.008000   ; qtot -0.922600
   42         N*      2      C     N1     42 -0.04840000  14.010000   ; qtot -0.971000
   43         C4      2      C     C6     43 0.00530000  12.010000   ; qtot -0.965700
   44         H4      2      C     H6     44 0.19580000   1.008000   ; qtot -0.769900
   45         C4      2      C     C5     45 -0.52150000  12.010000   ; qtot -1.291400
   46         HA      2      C     H5     46 0.19280000   1.008000   ; qtot -1.098600
   47         CA      2      C     C4     47 0.81850000  12.010000   ; qtot -0.280100
   48         N2      2      C     N4     48 -0.95300000  14.010000   ; qtot -1.233100
   49          H      2      C    H41     49 0.42340000   1.008000   ; qtot -0.809700
   50          H      2      C    H42     50 0.42340000   1.008000   ; qtot -0.386300
   51         NC      2      C     N3     51 -0.75840000  14.010000   ; qtot -1.144700
   52          C      2      C     C2     52 0.75380000  12.010000   ; qtot -0.390900
   53          O      2      C     O2     53 -0.62520000  16.000000   ; qtot -1.016100
   54         CT      2      C    C3'     54 0.20220000  12.010000   ; qtot -0.813900
   55         H1      2      C    H3'     55 0.06150000   1.008000   ; qtot -0.752400
   56         CT      2      C    C2'     56 0.06700000  12.010000   ; qtot -0.685400
   57         H1      2      C    H2'     57 0.09720000   1.008000   ; qtot -0.588200
   58         OH      2      C    O2'     58 -0.61390000  16.000000   ; qtot -1.202100
   59         HO      2      C   HO2'     59 0.41860000   1.008000   ; qtot -0.783500
   60         OS      2      C    O3'     60 -0.52460000  16.000000   ; qtot -1.308100
; residue    3 C rtp C q -1.0
   61          P      3      C      P     61 1.16620000  30.970000   ; qtot -0.141900
   62         O2      3      C    OP1     62 -0.77600000  16.000000   ; qtot -0.917900
   63         O2      3      C    OP2     63 -0.77600000  16.000000   ; qtot -1.693900
   64         OS      3      C    O5'     64 -0.49890000  16.000000   ; qtot -2.192800
   65         CI      3      C    C5'     65 0.05580000  12.010000   ; qtot -2.137000
   66         H1      3      C    H5'     66 0.06790000   1.008000   ; qtot -2.069100
   67         H1      3      C   H5''     67 0.06790000   1.008000   ; qtot -2.001200
   68         CT      3      C    C4'     68 0.10650000  12.010000   ; qtot -1.894700
   69         H1      3      C    H4'     69 0.11740000   1.008000   ; qtot -1.777300
   70         OS      3      C    O4'     70 -0.35480000  16.000000   ; qtot -2.132100
   71         CT      3      C    C1'     71 0.00660000  12.010000   ; qtot -2.125500
   72         H2      3      C    H1'     72 0.20290000   1.008000   ; qtot -1.922600
   73         N*      3      C     N1     73 -0.04840000  14.010000   ; qtot -1.971000
   74         C4      3      C     C6     74 0.00530000  12.010000   ; qtot -1.965700
   75         H4      3      C     H6     75 0.19580000   1.008000   ; qtot -1.769900
   76         C4      3      C     C5     76 -0.52150000  12.010000   ; qtot -2.291400
   77         HA      3      C     H5     77 0.19280000   1.008000   ; qtot -2.098600
   78         CA      3      C     C4     78 0.81850000  12.010000   ; qtot -1.280100
   79         N2      3      C     N4     79 -0.95300000  14.010000   ; qtot -2.233100
   80          H      3      C    H41     80 0.42340000   1.008000   ; qtot -1.809700
   81          H      3      C    H42     81 0.42340000   1.008000   ; qtot -1.386300
   82         NC      3      C     N3     82 -0.75840000  14.010000   ; qtot -2.144700
   83          C      3      C     C2     83 0.75380000  12.010000   ; qtot -1.390900
   84          O      3      C     O2     84 -0.62520000  16.000000   ; qtot -2.016100
   85         CT      3      C    C3'     85 0.20220000  12.010000   ; qtot -1.813900
   86         H1      3      C    H3'     86 0.06150000   1.008000   ; qtot -1.752400
   87         CT      3      C    C2'     87 0.06700000  12.010000   ; qtot -1.685400
   88         H1      3      C    H2'     88 0.09720000   1.008000   ; qtot -1.588200
   89         OH      3      C    O2'     89 -0.61390000  16.000000   ; qtot -2.202100
   90         HO      3      C   HO2'     90 0.41860000   1.008000   ; qtot -1.783500
   91         OS      3      C    O3'     91 -0.52460000  16.000000   ; qtot -2.308100
; residue    4 C3 rtp C3 q -0.7
   92          P      4     C3      P     92 1.16620000  30.970000   ; qtot -1.141900
   93         O2      4     C3    OP1     93 -0.77600000  16.000000   ; qtot -1.917900
   94         O2      4     C3    OP2     94 -0.77600000  16.000000   ; qtot -2.693900
   95         OS      4     C3    O5'     95 -0.49890000  16.000000   ; qtot -3.192800
   96         CI      4     C3    C5'     96 0.05580000  12.010000   ; qtot -3.137000
   97         H1      4     C3    H5'     97 0.06790000   1.008000   ; qtot -3.069100
   98         H1      4     C3   H5''     98 0.06790000   1.008000   ; qtot -3.001200
   99         CT      4     C3    C4'     99 0.10650000  12.010000   ; qtot -2.894700
  100         H1      4     C3    H4'    100 0.11740000   1.008000   ; qtot -2.777300
  101         OS      4     C3    O4'    101 -0.35480000  16.000000   ; qtot -3.132100
  102         CT      4     C3    C1'    102 0.00660000  12.010000   ; qtot -3.125500
  103         H2      4     C3    H1'    103 0.20290000   1.008000   ; qtot -2.922600
  104         N*      4     C3     N1    104 -0.04840000  14.010000   ; qtot -2.971000
  105         C4      4     C3     C6    105 0.00530000  12.010000   ; qtot -2.965700
  106         H4      4     C3     H6    106 0.19580000   1.008000   ; qtot -2.769900
  107         C4      4     C3     C5    107 -0.52150000  12.010000   ; qtot -3.291400
  108         HA      4     C3     H5    108 0.19280000   1.008000   ; qtot -3.098600
  109         CA      4     C3     C4    109 0.81850000  12.010000   ; qtot -2.280100
  110         N2      4     C3     N4    110 -0.95300000  14.010000   ; qtot -3.233100
  111          H      4     C3    H41    111 0.42340000   1.008000   ; qtot -2.809700
  112          H      4     C3    H42    112 0.42340000   1.008000   ; qtot -2.386300
  113         NC      4     C3     N3    113 -0.75840000  14.010000   ; qtot -3.144700
  114          C      4     C3     C2    114 0.75380000  12.010000   ; qtot -2.390900
  115          O      4     C3     O2    115 -0.62520000  16.000000   ; qtot -3.016100
  116         CT      4     C3    C3'    116 0.20220000  12.010000   ; qtot -2.813900
  117         H1      4     C3    H3'    117 0.06150000   1.008000   ; qtot -2.752400
  118         CT      4     C3    C2'    118 0.06700000  12.010000   ; qtot -2.685400
  119         H1      4     C3    H2'    119 0.09720000   1.008000   ; qtot -2.588200
  120         OH      4     C3    O2'    120 -0.61390000  16.000000   ; qtot -3.202100
  121         HO      4     C3   HO2'    121 0.41860000   1.008000   ; qtot -2.783500
  122         OH      4     C3    O3'    122 -0.65410000  16.000000   ; qtot -3.437600
  123         HO      4     C3   HO3'    123 0.43760000   1.008000   ; qtot -3.000000

[ bonds ]
;    ai     aj funct         c0         c1         c2         c3
     29     30     1   0.16100 192464.000000
     25     27     1   0.14100 267776.000000
     23     25     1   0.15260 259408.000000
     23     29     1   0.14100 267776.000000
     21     22     1   0.12290 476976.000000
     20     21     1   0.13580 382417.600000
     16     17     1   0.13400 402500.800000
     16     20     1   0.13390 404174.400000
     14     16     1   0.14330 357313.600000
     12     14     1   0.13500 459403.200000
     11     12     1   0.13650 374886.400000
     11     21     1   0.13830 354803.200000
      9     11     1   0.14750 282001.600000
      9     25     1   0.15260 259408.000000
      8      9     1   0.14100 267776.000000
      6      8     1   0.14100 267776.000000
      6     23     1   0.15260 259408.000000
      3      6     1   0.15260 259408.000000
      2      3     1   0.14100 267776.000000
     60     61     1   0.16100 192464.000000
     56     58     1   0.14100 267776.000000
     54     56     1   0.15260 259408.000000
     54     60     1   0.14100 267776.000000
     52     53     1   0.12290 476976.000000
     51     52     1   0.13580 382417.600000
     47     48     1   0.13400 402500.800000
     47     51     1   0.13390 404174.400000
     45     47     1   0.14330 357313.600000
     43     45     1   0.13500 459403.200000
     42     43     1   0.13650 374886.400000
     42     52     1   0.13830 354803.200000
     40     42     1   0.14750 282001.600000
     40     56     1   0.15260 259408.000000
     39     40     1   0.14100 267776.000000
     37     39     1   0.14100 267776.000000
     37     54     1   0.15260 259408.000000
     34     37     1   0.15260 259408.000000
     33     34     1   0.14100 267776.000000
     30     31     1   0.14800 439320.000000
     30     32     1   0.14800 439320.000000
     30     33     1   0.16100 192464.000000
     91     92     1   0.16100 192464.000000
     87     89     1   0.14100 267776.000000
     85     87     1   0.15260 259408.000000
     85     91     1   0.14100 267776.000000
     83     84     1   0.12290 476976.000000
     82     83     1   0.13580 382417.600000
     78     79     1   0.13400 402500.800000
     78     82     1   0.13390 404174.400000
     76     78     1   0.14330 357313.600000
     74     76     1   0.13500 459403.200000
     73     74     1   0.13650 374886.400000
     73     83     1   0.13830 354803.200000
     71     73     1   0.14750 282001.600000
     71     87     1   0.15260 259408.000000
     70     71     1   0.14100 267776.000000
     68     70     1   0.14100 267776.000000
     68     85     1   0.15260 259408.000000
     65     68     1   0.15260 259408.000000
     64     65     1   0.14100 267776.000000
     61     62     1   0.14800 439320.000000
     61     63     1   0.14800 439320.000000
     61     64     1   0.16100 192464.000000
    118    120     1   0.14100 267776.000000
    116    118     1   0.15260 259408.000000
    116    122     1   0.14100 267776.000000
    114    115     1   0.12290 476976.000000
    113    114     1   0.13580 382417.600000
    109    110     1   0.13400 402500.800000
    109    113     1   0.13390 404174.400000
    107    109     1   0.14330 357313.600000
    105    107     1   0.13500 459403.200000
    104    105     1   0.13650 374886.400000
    104    114     1   0.13830 354803.200000
    102    104     1   0.14750 282001.600000
    102    118     1   0.15260 259408.000000
    101    102     1   0.14100 267776.000000
     99    101     1   0.14100 267776.000000
     99    116     1   0.15260 259408.000000
     96     99     1   0.15260 259408.000000
     95     96     1   0.14100 267776.000000
     92     93     1   0.14800 439320.000000
     92     94     1   0.14800 439320.000000
     92     95     1   0.16100 192464.000000
     27     28     1   0.09600 462750.400000
     25     26     1   0.10900 284512.000000
     23     24     1   0.10900 284512.000000
     17     18     1   0.10100 363171.200000
     17     19     1   0.10100 363171.200000
     14     15     1   0.10800 307105.600000
     12     13     1   0.10800 307105.600000
      9     10     1   0.10900 284512.000000
      6      7     1   0.10900 284512.000000
      3      4     1   0.10900 284512.000000
      3      5     1   0.10900 284512.000000
      1      2     1   0.09600 462750.400000
     58     59     1   0.09600 462750.400000
     56     57     1   0.10900 284512.000000
     54     55     1   0.10900 284512.000000
     48     49     1   0.10100 363171.200000
     48     50     1   0.10100 363171.200000
     45     46     1   0.10800 307105.600000
     43     44     1   0.10800 307105.600000
     40     41     1   0.10900 284512.000000
     37     38     1   0.10900 284512.000000
     34     35     1   0.10900 284512.000000
     34     36     1   0.10900 284512.000000
     89     90     1   0.09600 462750.400000
     87     88     1   0.10900 284512.000000
     85     86     1   0.10900 284512.000000
     79     80     1   0.10100 363171.200000
     79     81     1   0.10100 363171.200000
     76     77     1   0.10800 307105.600000
     74     75     1   0.10800 307105.600000
     71     72     1   0.10900 284512.000000
     68     69     1   0.10900 284512.000000
     65     66     1   0.10900 284512.000000
     65     67     1   0.10900 284512.000000
    122    123     1   0.09600 462750.400000
    120    121     1   0.09600 462750.400000
    118    119     1   0.10900 284512.000000
    116    117     1   0.10900 284512.000000
    110    111     1   0.10100 363171.200000
    110    112     1   0.10100 363171.200000
    107    108     1   0.10800 307105.600000
    105    106     1   0.10800 307105.600000
    102    103     1   0.10900 284512.000000
     99    100     1   0.10900 284512.000000
     96     97     1   0.10900 284512.000000
     96     98     1   0.10900 284512.000000

[ pairs ]
;    ai     aj funct         c0         c1         c2         c3
     29     34     1
     27     29     1
     25     30     1
     23     31     1
     23     32     1
     23     33     1
     21     25     1
     17     21     1
     16     22     1
     14     21     1
     12     25     1
     12     20     1
     12     22     1
     12     17     1
     11     23     1
     11     27     1
     11     16     1
      9     14     1
      9     20     1
      9     22     1
      9     29     1
      8     29     1
      8     12     1
      8     21     1
      8     27     1
      6     11     1
      6     27     1
      6     30     1
      3      9     1
      3     25     1
      3     29     1
      2      8     1
      2     23     1
     60     65     1
     58     60     1
     56     61     1
     54     62     1
     54     63     1
     54     64     1
     52     56     1
     48     52     1
     47     53     1
     45     52     1
     43     56     1
     43     51     1
     43     53     1
     43     48     1
     42     54     1
     42     58     1
     42     47     1
     40     45     1
     40     51     1
     40     53     1
     40     60     1
     39     60     1
     39     43     1
     39     52     1
     39     58     1
     37     42     1
     37     58     1
     37     61     1
     34     40     1
     34     56     1
     34     60     1
     33     39     1
     33     54     1
     32     34     1
     31     34     1
     30     37     1
     91     96     1
     89     91     1
     87     92     1
     85     93     1
     85     94     1
     85     95     1
     83     87     1
     79     83     1
     78     84     1
     76     83     1
     74     87     1
     74     82     1
     74     84     1
     74     79     1
     73     85     1
     73     89     1
     73     78     1
     71     76     1
     71     82     1
     71     84     1
     71     91     1
     70     91     1
     70     74     1
     70     83     1
     70     89     1
     68     73     1
     68     89     1
     68     92     1
     65     71     1
     65     87     1
     65     91     1
     64     70     1
     64     85     1
     63     65     1
     62     65     1
     61     68     1
    120    122     1
    114    118     1
    110    114     1
    109    115     1
    107    114     1
    105    118     1
    105    113     1
    105    115     1
    105    110     1
    104    116     1
    104    120     1
    104    109     1
    102    107     1
    102    113     1
    102    115     1
    102    122     1
    101    122     1
    101    105     1
    101    114     1
    101    120     1
     99    104     1
     99    120     1
     96    102     1
     96    118     1
     96    122     1
     95    101     1
     95    116     1
     94     96     1
     93     96     1
     92     99     1
     26     29     1
     26     28     1
     24     26     1
     24     27     1
     24     30     1
     23     28     1
     19     20     1
     18     20     1
     15     17     1
     15     20     1
     14     18     1
     14     19     1
     13     21     1
     13     15     1
     13     16     1
     11     26     1
     11     15     1
     10     12     1
     10     21     1
     10     23     1
     10     26     1
     10     27     1
      9     13     1
      9     24     1
      9     28     1
      8     24     1
      8     26     1
      7      9     1
      7     24     1
      7     25     1
      7     29     1
      6     10     1
      6     26     1
      5      7     1
      5      8     1
      5     23     1
      4      7     1
      4      8     1
      4     23     1
      3     24     1
      2      7     1
      1      4     1
      1      5     1
      1      6     1
     57     60     1
     57     59     1
     55     57     1
     55     58     1
     55     61     1
     54     59     1
     50     51     1
     49     51     1
     46     48     1
     46     51     1
     45     49     1
     45     50     1
     44     52     1
     44     46     1
     44     47     1
     42     57     1
     42     46     1
     41     43     1
     41     52     1
     41     54     1
     41     57     1
     41     58     1
     40     44     1
     40     55     1
     40     59     1
     39     55     1
     39     57     1
     38     40     1
     38     55     1
     38     56     1
     38     60     1
     37     41     1
     37     57     1
     36     38     1
     36     39     1
     36     54     1
     35     38     1
     35     39     1
     35     54     1
     34     55     1
     33     38     1
     30     35     1
     30     36     1
     88     91     1
     88     90     1
     86     88     1
     86     89     1
     86     92     1
     85     90     1
     81     82     1
     80     82     1
     77     79     1
     77     82     1
     76     80     1
     76     81     1
     75     83     1
     75     77     1
     75     78     1
     73     88     1
     73     77     1
     72     74     1
     72     83     1
     72     85     1
     72     88     1
     72     89     1
     71     75     1
     71     86     1
     71     90     1
     70     86     1
     70     88     1
     69     71     1
     69     86     1
     69     87     1
     69     91     1
     68     72     1
     68     88     1
     67     69     1
     67     70     1
     67     85     1
     66     69     1
     66     70     1
     66     85     1
     65     86     1
     64     69     1
     61     66     1
     61     67     1
    119    122     1
    119    121     1
    118    123     1
    117    119     1
    117    120     1
    117    123     1
    116    121     1
    112    113     1
    111    113     1
    108    110     1
    108    113     1
    107    111     1
    107    112     1
    106    114     1
    106    108     1
    106    109     1
    104    119     1
    104    108     1
    103    105     1
    103    114     1
    103    116     1
    103    119     1
    103    120     1
    102    106     1
    102    117     1
    102    121     1
    101    117     1
    101    119     1
    100    102     1
    100    117     1
    100    118     1
    100    122     1
     99    103     1
     99    119     1
     99    123     1
     98    100     1
     98    101     1
     98    116     1
     97    100     1
     97    101     1
     97    116     1
     96    117     1
     95    100     1
     92     97     1
     92     98     1

[ angles ]
;    ai     aj     ak funct         c0         c1         c2         c3
     29     30     31     1   108.2300464 836.800000
     29     30     32     1   108.2300464 836.800000
     29     30     33     1   102.6000440 376.560000
     25     23     29     1   109.5000469 418.400000
     23     25     27     1   109.5000469 418.400000
     23     29     30     1   120.5000516 836.800000
     20     21     22     1   122.5000525 669.440000
     17     16     20     1   119.3000511 585.760000
     16     20     21     1   120.5000516 585.760000
     14     16     17     1   120.1000515 585.760000
     14     16     20     1   121.5000521 585.760000
     12     11     21     1   121.6000521 585.760000
     12     14     16     1   117.0000501 527.184000
     11      9     25     1   109.5000469 418.400000
     11     12     14     1   121.2000519 585.760000
     11     21     20     1   118.6000508 585.760000
     11     21     22     1   120.9000518 669.440000
      9     11     12     1   121.2000519 585.760000
      9     11     21     1   117.6000504 585.760000
      9     25     23     1   109.5000469 334.720000
      9     25     27     1   109.5000469 418.400000
      8      6     23     1   109.5000469 418.400000
      8      9     11     1   109.5000469 418.400000
      8      9     25     1   109.5000469 418.400000
      6      8      9     1   109.5000469 502.080000
      6     23     25     1   109.5000469 334.720000
      6     23     29     1   109.5000469 418.400000
      3      6      8     1   109.5000469 418.400000
      3      6     23     1   109.5000469 334.720000
      2      3      6     1   109.5000469 418.400000
     60     61     62     1   108.2300464 836.800000
     60     61     63     1   108.2300464 836.800000
     60     61     64     1   102.6000440 376.560000
     56     54     60     1   109.5000469 418.400000
     54     56     58     1   109.5000469 418.400000
     54     60     61     1   120.5000516 836.800000
     51     52     53     1   122.5000525 669.440000
     48     47     51     1   119.3000511 585.760000
     47     51     52     1   120.5000516 585.760000
     45     47     48     1   120.1000515 585.760000
     45     47     51     1   121.5000521 585.760000
     43     42     52     1   121.6000521 585.760000
     43     45     47     1   117.0000501 527.184000
     42     40     56     1   109.5000469 418.400000
     42     43     45     1   121.2000519 585.760000
     42     52     51     1   118.6000508 585.760000
     42     52     53     1   120.9000518 669.440000
     40     42     43     1   121.2000519 585.760000
     40     42     52     1   117.6000504 585.760000
     40     56     54     1   109.5000469 334.720000
     40     56     58     1   109.5000469 418.400000
     39     37     54     1   109.5000469 418.400000
     39     40     42     1   109.5000469 418.400000
     39     40     56     1   109.5000469 418.400000
     37     39     40     1   109.5000469 502.080000
     37     54     56     1   109.5000469 334.720000
     37     54     60     1   109.5000469 418.400000
     34     37     39     1   109.5000469 418.400000
     34     37     54     1   109.5000469 334.720000
     33     34     37     1   109.5000469 418.400000
     32     30     33     1   108.2300464 836.800000
     31     30     32     1   119.9000514 1171.520000
     31     30     33     1   108.2300464 836.800000
     30     33     34     1   120.5000516 836.800000
     91     92     93     1   108.2300464 836.800000
     91     92     94     1   108.2300464 836.800000
     91     92     95     1   102.6000440 376.560000
     87     85     91     1   109.5000469 418.400000
     85     87     89     1   109.5000469 418.400000
     85     91     92     1   120.5000516 836.800000
     82     83     84     1   122.5000525 669.440000
     79     78     82     1   119.3000511 585.760000
     78     82     83     1   120.5000516 585.760000
     76     78     79     1   120.1000515 585.760000
     76     78     82     1   121.5000521 585.760000
     74     73     83     1   121.6000521 585.760000
     74     76     78     1   117.0000501 527.184000
     73     71     87     1   109.5000469 418.400000
     73     74     76     1   121.2000519 585.760000
     73     83     82     1   118.6000508 585.760000
     73     83     84     1   120.9000518 669.440000
     71     73     74     1   121.2000519 585.760000
     71     73     83     1   117.6000504 585.760000
     71     87     85     1   109.5000469 334.720000
     71     87     89     1   109.5000469 418.400000
     70     68     85     1   109.5000469 418.400000
     70     71     73     1   109.5000469 418.400000
     70     71     87     1   109.5000469 418.400000
     68     70     71     1   109.5000469 502.080000
     68     85     87     1   109.5000469 334.720000
     68     85     91     1   109.5000469 418.400000
     65     68     70     1   109.5000469 418.400000
     65     68     85     1   109.5000469 334.720000
     64     65     68     1   109.5000469 418.400000
     63     61     64     1   108.2300464 836.800000
     62     61     63     1   119.9000514 1171.520000
     62     61     64     1   108.2300464 836.800000
     61     64     65     1   120.5000516 836.800000
    118    116    122     1   109.5000469 418.400000
    116    118    120     1   109.5000469 418.400000
    113    114    115     1   122.5000525 669.440000
    110    109    113     1   119.3000511 585.760000
    109    113    114     1   120.5000516 585.760000
    107    109    110     1   120.1000515 585.760000
    107    109    113     1   121.5000521 585.760000
    105    104    114     1   121.6000521 585.760000
    105    107    109     1   117.0000501 527.184000
    104    102    118     1   109.5000469 418.400000
    104    105    107     1   121.2000519 585.760000
    104    114    113     1   118.6000508 585.760000
    104    114    115     1   120.9000518 669.440000
    102    104    105     1   121.2000519 585.760000
    102    104    114     1   117.6000504 585.760000
    102    118    116     1   109.5000469 334.720000
    102    118    120     1   109.5000469 418.400000
    101     99    116     1   109.5000469 418.400000
    101    102    104     1   109.5000469 418.400000
    101    102    118     1   109.5000469 418.400000
     99    101    102     1   109.5000469 502.080000
     99    116    118     1   109.5000469 334.720000
     99    116    122     1   109.5000469 418.400000
     96     99    101     1   109.5000469 418.400000
     96     99    116     1   109.5000469 334.720000
     95     96     99     1   109.5000469 418.400000
     94     92     95     1   108.2300464 836.800000
     93     92     94     1   119.9000514 1171.520000
     93     92     95     1   108.2300464 836.800000
     92     95     96     1   120.5000516 836.800000
     26     25     27     1   109.5000469 418.400000
     25     27     28     1   108.5000465 460.240000
     24     23     25     1   109.5000469 418.400000
     24     23     29     1   109.5000469 418.400000
     23     25     26     1   109.5000469 418.400000
     18     17     19     1   120.0000514 292.880000
     16     17     18     1   120.0000514 418.400000
     16     17     19     1   120.0000514 418.400000
     15     14     16     1   123.3000528 418.400000
     13     12     14     1   119.7000513 418.400000
     12     14     15     1   119.7000513 418.400000
     11     12     13     1   119.1000510 418.400000
     10      9     11     1   109.5000469 418.400000
     10      9     25     1   109.5000469 418.400000
      9     25     26     1   109.5000469 418.400000
      8      9     10     1   109.5000469 418.400000
      7      6      8     1   109.5000469 418.400000
      7      6     23     1   109.5000469 418.400000
      6     23     24     1   109.5000469 418.400000
      5      3      6     1   109.5000469 418.400000
      4      3      5     1   109.5000469 292.880000
      4      3      6     1   109.5000469 418.400000
      3      6      7     1   109.5000469 418.400000
      2      3      4     1   109.5000469 418.400000
      2      3      5     1   109.5000469 418.400000
      1      2      3     1   108.5000465 460.240000
     57     56     58     1   109.5000469 418.400000
     56     58     59     1   108.5000465 460.240000
     55     54     56     1   109.5000469 418.400000
     55     54     60     1   109.5000469 418.400000
     54     56     57     1   109.5000469 418.400000
     49     48     50     1   120.0000514 292.880000
     47     48     49     1   120.0000514 418.400000
     47     48     50     1   120.0000514 418.400000
     46     45     47     1   123.3000528 418.400000
     44     43     45     1   119.7000513 418.400000
     43     45     46     1   119.7000513 418.400000
     42     43     44     1   119.1000510 418.400000
     41     40     42     1   109.5000469 418.400000
     41     40     56     1   109.5000469 418.400000
     40     56     57     1   109.5000469 418.400000
     39     40     41     1   109.5000469 418.400000
     38     37     39     1   109.5000469 418.400000
     38     37     54     1   109.5000469 418.400000
     37     54     55     1   109.5000469 418.400000
     36     34     37     1   109.5000469 418.400000
     35     34     36     1   109.5000469 292.880000
     35     34     37     1   109.5000469 418.400000
     34     37     38     1   109.5000469 418.400000
     33     34     35     1   109.5000469 418.400000
     33     34     36     1   109.5000469 418.400000
     88     87     89     1   109.5000469 418.400000
     87     89     90     1   108.5000465 460.240000
     86     85     87     1   109.5000469 418.400000
     86     85     91     1   109.5000469 418.400000
     85     87     88     1   109.5000469 418.400000
     80     79     81     1   120.0000514 292.880000
     78     79     80     1   120.0000514 418.400000
     78     79     81     1   120.0000514 418.400000
     77     76     78     1   123.3000528 418.400000
     75     74     76     1   119.7000513 418.400000
     74     76     77     1   119.7000513 418.400000
     73     74     75     1   119.1000510 418.400000
     72     71     73     1   109.5000469 418.400000
     72     71     87     1   109.5000469 418.400000
     71     87     88     1   109.5000469 418.400000
     70     71     72     1   109.5000469 418.400000
     69     68     70     1   109.5000469 418.400000
     69     68     85     1   109.5000469 418.400000
     68     85     86     1   109.5000469 418.400000
     67     65     68     1   109.5000469 418.400000
     66     65     67     1   109.5000469 292.880000
     66     65     68     1   109.5000469 418.400000
     65     68     69     1   109.5000469 418.400000
     64     65     66     1   109.5000469 418.400000
     64     65     67     1   109.5000469 418.400000
    119    118    120     1   109.5000469 418.400000
    118    120    121     1   108.5000465 460.240000
    117    116    118     1   109.5000469 418.400000
    117    116    122     1   109.5000469 418.400000
    116    118    119     1   109.5000469 418.400000
    116    122    123     1   108.5000465 460.240000
    111    110    112     1   120.0000514 292.880000
    109    110    111     1   120.0000514 418.400000
    109    110    112     1   120.0000514 418.400000
    108    107    109     1   123.3000528 418.400000
    106    105    107     1   119.7000513 418.400000
    105    107    108     1   119.7000513 418.400000
    104    105    106     1   119.1000510 418.400000
    103    102    104     1   109.5000469 418.400000
    103    102    118     1   109.5000469 418.400000
    102    118    119     1   109.5000469 418.400000
    101    102    103     1   109.5000469 418.400000
    100     99    101     1   109.5000469 418.400000
    100     99    116     1   109.5000469 418.400000
     99    116    117     1   109.5000469 418.400000
     98     96     99     1   109.5000469 418.400000
     97     96     98     1   109.5000469 292.880000
     97     96     99     1   109.5000469 418.400000
     96     99    100     1   109.5000469 418.400000
     95     96     97     1   109.5000469 418.400000
     95     96     98     1   109.5000469 418.400000

[ dihedrals ]
;    ai     aj     ak     al funct         c0         c1         c2         c3         c4         c5
     29     30     33     34     1  31.7950936  0.7747973  1
     29     30     33     34     1  351.9597510  5.2573257  2
     29     30     33     34     1  357.2476330  1.4847259  3
     27     25     23     29     1  0.0000000  4.9162000  2
     27     25     23     29     1  0.0000000  0.6024960  3
     25     23     29     30     1  0.0000000  1.6038667  3
     23     29     30     31     1  0.0000000  1.0460000  3
     23     29     30     32     1  0.0000000  1.0460000  3
     23     29     30     33     1  0.0000000  5.0208000  2
     23     29     30     33     1  0.0000000  1.0460000  3
     21     11      9     25     1  0.0000000  0.0000000  2
     17     16     20     21     1  180.0000771  20.0832000  2
     16     20     21     22     1  180.0000771  16.7360000  2
     14     12     11     21     1  180.0000771  7.7404000  2
     14     16     20     21     1  180.0000771  20.0832000  2
     12     11      9     25     1  0.0000000  0.0000000  2
     12     11     21     20     1  180.0000771  6.0668000  2
     12     11     21     22     1  180.0000771  6.0668000  2
     12     14     16     17     1  180.0000771  10.6692000  2
     12     14     16     20     1  180.0000771  10.6692000  2
     11      9     25     23     1  0.0000000  0.6508444  3
     11      9     25     27     1  0.0000000  0.6508444  3
     11     12     14     16     1  180.0000771  27.8236000  2
     11     21     20     16     1  180.0000771  16.7360000  2
      9      8      6     23     1  180.0000771  0.4184000  2
      9      8      6     23     1  0.0000000  1.6024720  3
      9     11     12     14     1  180.0000771  7.7404000  2
      9     11     21     20     1  180.0000771  6.0668000  2
      9     11     21     22     1  180.0000771  6.0668000  2
      9     25     23     29     1  0.0000000  0.6508444  3
      8      6     23     25     1  0.0000000  0.6508444  3
      8      6     23     29     1  0.0000000  4.9162000  2
      8      6     23     29     1  0.0000000  0.6024960  3
      8      9     11     12     1  146.9892627  5.1256510  1
      8      9     11     12     1  16.4766071  6.8391246  2
      8      9     11     12     1  185.8774799  3.9223745  3
      8      9     11     12     1  32.1590138  1.2984207  4
      8      9     11     21     1  0.0000000  0.0000000  2
      8      9     25     23     1  0.0000000  0.6508444  3
      8      9     25     27     1  0.0000000  4.9162000  2
      8      9     25     27     1  0.0000000  0.6024960  3
      6      8      9     11     1  0.0000000  2.7196000  2
      6      8      9     11     1  0.0000000  1.6024720  3
      6      8      9     25     1  180.0000771  0.4184000  2
      6      8      9     25     1  0.0000000  1.6024720  3
      6     23     25      9     1  180.0000771  0.8368000  1
      6     23     25      9     1  180.0000771  1.0460000  2
      6     23     25      9     1  0.0000000  0.7531200  3
      6     23     25     27     1  0.0000000  0.6508444  3
      6     23     29     30     1  0.0000000  1.6038667  3
      3      6      8      9     1  180.0000771  0.4184000  2
      3      6      8      9     1  0.0000000  1.6024720  3
      3      6     23     25     1  180.0000771  0.8368000  1
      3      6     23     25     1  180.0000771  1.0460000  2
      3      6     23     25     1  0.0000000  0.7531200  3
      3      6     23     29     1  0.0000000  0.6508444  3
      2      3      6      8     1  0.0000000  0.6508444  3
      2      3      6     23     1  190.9766118  4.9289194  1
      2      3      6     23     1  295.6329165  0.3853548  2
      2      3      6     23     1  348.0954991  4.0284807  3
     60     61     64     65     1  31.7950936  0.7747973  1
     60     61     64     65     1  351.9597510  5.2573257  2
     60     61     64     65     1  357.2476330  1.4847259  3
     58     56     54     60     1  0.0000000  4.9162000  2
     58     56     54     60     1  0.0000000  0.6024960  3
     56     54     60     61     1  0.0000000  1.6038667  3
     54     60     61     62     1  0.0000000  1.0460000  3
     54     60     61     63     1  0.0000000  1.0460000  3
     54     60     61     64     1  0.0000000  5.0208000  2
     54     60     61     64     1  0.0000000  1.0460000  3
     52     42     40     56     1  0.0000000  0.0000000  2
     48     47     51     52     1  180.0000771  20.0832000  2
     47     51     52     53     1  180.0000771  16.7360000  2
     45     43     42     52     1  180.0000771  7.7404000  2
     45     47     51     52     1  180.0000771  20.0832000  2
     43     42     40     56     1  0.0000000  0.0000000  2
     43     42     52     51     1  180.0000771  6.0668000  2
     43     42     52     53     1  180.0000771  6.0668000  2
     43     45     47     48     1  180.0000771  10.6692000  2
     43     45     47     51     1  180.0000771  10.6692000  2
     42     40     56     54     1  0.0000000  0.6508444  3
     42     40     56     58     1  0.0000000  0.6508444  3
     42     43     45     47     1  180.0000771  27.8236000  2
     42     52     51     47     1  180.0000771  16.7360000  2
     40     39     37     54     1  180.0000771  0.4184000  2
     40     39     37     54     1  0.0000000  1.6024720  3
     40     42     43     45     1  180.0000771  7.7404000  2
     40     42     52     51     1  180.0000771  6.0668000  2
     40     42     52     53     1  180.0000771  6.0668000  2
     40     56     54     60     1  0.0000000  0.6508444  3
     39     37     54     56     1  0.0000000  0.6508444  3
     39     37     54     60     1  0.0000000  4.9162000  2
     39     37     54     60     1  0.0000000  0.6024960  3
     39     40     42     43     1  146.9892627  5.1256510  1
     39     40     42     43     1  16.4766071  6.8391246  2
     39     40     42     43     1  185.8774799  3.9223745  3
     39     40     42     43     1  32.1590138  1.2984207  4
     39     40     42     52     1  0.0000000  0.0000000  2
     39     40     56     54     1  0.0000000  0.6508444  3
     39     40     56     58     1  0.0000000  4.9162000  2
     39     40     56     58     1  0.0000000  0.6024960  3
     37     39     40     42     1  0.0000000  2.7196000  2
     37     39     40     42     1  0.0000000  1.6024720  3
     37     39     40     56     1  180.0000771  0.4184000  2
     37     39     40     56     1  0.0000000  1.6024720  3
     37     54     56     40     1  180.0000771  0.8368000  1
     37     54     56     40     1  180.0000771  1.0460000  2
     37     54     56     40     1  0.0000000  0.7531200  3
     37     54     56     58     1  0.0000000  0.6508444  3
     37     54     60     61     1  0.0000000  1.6038667  3
     34     37     39     40     1  180.0000771  0.4184000  2
     34     37     39     40     1  0.0000000  1.6024720  3
     34     37     54     56     1  180.0000771  0.8368000  1
     34     37     54     56     1  180.0000771  1.0460000  2
     34     37     54     56     1  0.0000000  0.7531200  3
     34     37     54     60     1  0.0000000  0.6508444  3
     33     34     37     39     1  0.0000000  0.6508444  3
     33     34     37     54     1  190.9766118  4.9289194  1
     33     34     37     54     1  295.6329165  0.3853548  2
     33     34     37     54     1  348.0954991  4.0284807  3
     32     30     33     34     1  0.0000000  1.0460000  3
     31     30     33     34     1  0.0000000  1.0460000  3
     30     33     34     37     1  0.0000000  1.6038667  3
     91     92     95     96     1  31.7950936  0.7747973  1
     91     92     95     96     1  351.9597510  5.2573257  2
     91     92     95     96     1  357.2476330  1.4847259  3
     89     87     85     91     1  0.0000000  4.9162000  2
     89     87     85     91     1  0.0000000  0.6024960  3
     87     85     91     92     1  0.0000000  1.6038667  3
     85     91     92     93     1  0.0000000  1.0460000  3
     85     91     92     94     1  0.0000000  1.0460000  3
     85     91     92     95     1  0.0000000  5.0208000  2
     85     91     92     95     1  0.0000000  1.0460000  3
     83     73     71     87     1  0.0000000  0.0000000  2
     79     78     82     83     1  180.0000771  20.0832000  2
     78     82     83     84     1  180.0000771  16.7360000  2
     76     74     73     83     1  180.0000771  7.7404000  2
     76     78     82     83     1  180.0000771  20.0832000  2
     74     73     71     87     1  0.0000000  0.0000000  2
     74     73     83     82     1  180.0000771  6.0668000  2
     74     73     83     84     1  180.0000771  6.0668000  2
     74     76     78     79     1  180.0000771  10.6692000  2
     74     76     78     82     1  180.0000771  10.6692000  2
     73     71     87     85     1  0.0000000  0.6508444  3
     73     71     87     89     1  0.0000000  0.6508444  3
     73     74     76     78     1  180.0000771  27.8236000  2
     73     83     82     78     1  180.0000771  16.7360000  2
     71     70     68     85     1  180.0000771  0.4184000  2
     71     70     68     85     1  0.0000000  1.6024720  3
     71     73     74     76     1  180.0000771  7.7404000  2
     71     73     83     82     1  180.0000771  6.0668000  2
     71     73     83     84     1  180.0000771  6.0668000  2
     71     87     85     91     1  0.0000000  0.6508444  3
     70     68     85     87     1  0.0000000  0.6508444  3
     70     68     85     91     1  0.0000000  4.9162000  2
     70     68     85     91     1  0.0000000  0.6024960  3
     70     71     73     74     1  146.9892627  5.1256510  1
     70     71     73     74     1  16.4766071  6.8391246  2
     70     71     73     74     1  185.8774799  3.9223745  3
     70     71     73     74     1  32.1590138  1.2984207  4
     70     71     73     83     1  0.0000000  0.0000000  2
     70     71     87     85     1  0.0000000  0.6508444  3
     70     71     87     89     1  0.0000000  4.9162000  2
     70     71     87     89     1  0.0000000  0.6024960  3
     68     70     71     73     1  0.0000000  2.7196000  2
     68     70     71     73     1  0.0000000  1.6024720  3
     68     70     71     87     1  180.0000771  0.4184000  2
     68     70     71     87     1  0.0000000  1.6024720  3
     68     85     87     71     1  180.0000771  0.8368000  1
     68     85     87     71     1  180.0000771  1.0460000  2
     68     85     87     71     1  0.0000000  0.7531200  3
     68     85     87     89     1  0.0000000  0.6508444  3
     68     85     91     92     1  0.0000000  1.6038667  3
     65     68     70     71     1  180.0000771  0.4184000  2
     65     68     70     71     1  0.0000000  1.6024720  3
     65     68     85     87     1  180.0000771  0.8368000  1
     65     68     85     87     1  180.0000771  1.0460000  2
     65     68     85     87     1  0.0000000  0.7531200  3
     65     68     85     91     1  0.0000000  0.6508444  3
     64     65     68     70     1  0.0000000  0.6508444  3
     64     65     68     85     1  190.9766118  4.9289194  1
     64     65     68     85     1  295.6329165  0.3853548  2
     64     65     68     85     1  348.0954991  4.0284807  3
     63     61     64     65     1  0.0000000  1.0460000  3
     62     61     64     65     1  0.0000000  1.0460000  3
     61     64     65     68     1  0.0000000  1.6038667  3
    120    118    116    122     1  0.0000000  4.9162000  2
    120    118    116    122     1  0.0000000  0.6024960  3
    114    104    102    118     1  0.0000000  0.0000000  2
    110    109    113    114     1  180.0000771  20.0832000  2
    109    113    114    115     1  180.0000771  16.7360000  2
    107    105    104    114     1  180.0000771  7.7404000  2
    107    109    113    114     1  180.0000771  20.0832000  2
    105    104    102    118     1  0.0000000  0.0000000  2
    105    104    114    113     1  180.0000771  6.0668000  2
    105    104    114    115     1  180.0000771  6.0668000  2
    105    107    109    110     1  180.0000771  10.6692000  2
    105    107    109    113     1  180.0000771  10.6692000  2
    104    102    118    116     1  0.0000000  0.6508444  3
    104    102    118    120     1  0.0000000  0.6508444  3
    104    105    107    109     1  180.0000771  27.8236000  2
    104    114    113    109     1  180.0000771  16.7360000  2
    102    101     99    116     1  180.0000771  0.4184000  2
    102    101     99    116     1  0.0000000  1.6024720  3
    102    104    105    107     1  180.0000771  7.7404000  2
    102    104    114    113     1  180.0000771  6.0668000  2
    102    104    114    115     1  180.0000771  6.0668000  2
    102    118    116    122     1  0.0000000  0.6508444  3
    101     99    116    118     1  0.0000000  0.6508444  3
    101     99    116    122     1  0.0000000  4.9162000  2
    101     99    116    122     1  0.0000000  0.6024960  3
    101    102    104    105     1  146.9892627  5.1256510  1
    101    102    104    105     1  16.4766071  6.8391246  2
    101    102    104    105     1  185.8774799  3.9223745  3
    101    102    104    105     1  32.1590138  1.2984207  4
    101    102    104    114     1  0.0000000  0.0000000  2
    101    102    118    116     1  0.0000000  0.6508444  3
    101    102    118    120     1  0.0000000  4.9162000  2
    101    102    118    120     1  0.0000000  0.6024960  3
     99    101    102    104     1  0.0000000  2.7196000  2
     99    101    102    104     1  0.0000000  1.6024720  3
     99    101    102    118     1  180.0000771  0.4184000  2
     99    101    102    118     1  0.0000000  1.6024720  3
     99    116    118    102     1  180.0000771  0.8368000  1
     99    116    118    102     1  180.0000771  1.0460000  2
     99    116    118    102     1  0.0000000  0.7531200  3
     99    116    118    120     1  0.0000000  0.6508444  3
     96     99    101    102     1  180.0000771  0.4184000  2
     96     99    101    102     1  0.0000000  1.6024720  3
     96     99    116    118     1  180.0000771  0.8368000  1
     96     99    116    118     1  180.0000771  1.0460000  2
     96     99    116    118     1  0.0000000  0.7531200  3
     96     99    116    122     1  0.0000000  0.6508444  3
     95     96     99    101     1  0.0000000  0.6508444  3
     95     96     99    116     1  190.9766118  4.9289194  1
     95     96     99    116     1  295.6329165  0.3853548  2
     95     96     99    116     1  348.0954991  4.0284807  3
     94     92     95     96     1  0.0000000  1.0460000  3
     93     92     95     96     1  0.0000000  1.0460000  3
     92     95     96     99     1  0.0000000  1.6038667  3
     11     20     21     22     4  180.0000771  43.9320000  2
     14     17     16     20     4  180.0000771  4.6024000  2
     21     12     11      9     4  180.0000771  4.1840000  2
     42     51     52     53     4  180.0000771  43.9320000  2
     45     48     47     51     4  180.0000771  4.6024000  2
     52     43     42     40     4  180.0000771  4.1840000  2
     73     82     83     84     4  180.0000771  43.9320000  2
     76     79     78     82     4  180.0000771  4.6024000  2
     83     74     73     71     4  180.0000771  4.1840000  2
    104    113    114    115     4  180.0000771  43.9320000  2
    107    110    109    113     4  180.0000771  4.6024000  2
    114    105    104    102     4  180.0000771  4.1840000  2
     26     25     23     29     1  0.0000000  1.0460000  1
     26     25     23     29     1  0.0000000  0.0000000  3
     26     25     27     28     1  0.0000000  0.6973333  3
     24     23     25     26     1  0.0000000  0.6508444  3
     24     23     25     27     1  0.0000000  1.0460000  1
     24     23     25     27     1  0.0000000  0.0000000  3
     24     23     29     30     1  0.0000000  1.6038667  3
     23     25     27     28     1  0.0000000  1.0460000  1
     23     25     27     28     1  0.0000000  0.6694400  3
     19     17     16     20     1  180.0000771  10.0416000  2
     18     17     16     20     1  180.0000771  10.0416000  2
     15     14     16     17     1  180.0000771  10.6692000  2
     15     14     16     20     1  180.0000771  10.6692000  2
     14     16     17     18     1  180.0000771  10.0416000  2
     14     16     17     19     1  180.0000771  10.0416000  2
     13     12     11     21     1  180.0000771  7.7404000  2
     13     12     14     15     1  180.0000771  27.8236000  2
     13     12     14     16     1  180.0000771  27.8236000  2
     11      9     25     26     1  0.0000000  0.6508444  3
     11     12     14     15     1  180.0000771  27.8236000  2
     10      9     11     12     1  0.0000000  0.0000000  2
     10      9     11     21     1  0.0000000  0.0000000  2
     10      9     25     23     1  0.0000000  0.6508444  3
     10      9     25     26     1  0.0000000  0.6508444  3
     10      9     25     27     1  0.0000000  0.6508444  3
      9     11     12     13     1  180.0000771  7.7404000  2
      9     25     23     24     1  0.0000000  0.6508444  3
      9     25     27     28     1  0.0000000  1.0460000  1
      9     25     27     28     1  0.0000000  0.6694400  3
      8      6     23     24     1  0.0000000  1.0460000  1
      8      6     23     24     1  0.0000000  0.0000000  3
      8      9     25     26     1  0.0000000  1.0460000  1
      8      9     25     26     1  0.0000000  0.0000000  3
      7      6      8      9     1  0.0000000  1.6038667  3
      7      6     23     24     1  0.0000000  0.6508444  3
      7      6     23     25     1  0.0000000  0.6508444  3
      7      6     23     29     1  0.0000000  1.0460000  1
      7      6     23     29     1  0.0000000  0.0000000  3
      6      8      9     10     1  0.0000000  1.6038667  3
      6     23     25     26     1  0.0000000  0.6508444  3
      5      3      6      7     1  0.0000000  0.6508444  3
      5      3      6      8     1  0.0000000  1.0460000  1
      5      3      6      8     1  0.0000000  0.0000000  3
      5      3      6     23     1  0.0000000  0.6508444  3
      4      3      6      7     1  0.0000000  0.6508444  3
      4      3      6      8     1  0.0000000  1.0460000  1
      4      3      6      8     1  0.0000000  0.0000000  3
      4      3      6     23     1  0.0000000  0.6508444  3
      3      6     23     24     1  0.0000000  0.6508444  3
      2      3      6      7     1  0.0000000  1.0460000  1
      2      3      6      7     1  0.0000000  0.0000000  3
      1      2      3      4     1  0.0000000  0.6973333  3
      1      2      3      5     1  0.0000000  0.6973333  3
      1      2      3      6     1  0.0000000  0.6973333  3
     57     56     54     60     1  0.0000000  1.0460000  1
     57     56     54     60     1  0.0000000  0.0000000  3
     57     56     58     59     1  0.0000000  0.6973333  3
     55     54     56     57     1  0.0000000  0.6508444  3
     55     54     56     58     1  0.0000000  1.0460000  1
     55     54     56     58     1  0.0000000  0.0000000  3
     55     54     60     61     1  0.0000000  1.6038667  3
     54     56     58     59     1  0.0000000  1.0460000  1
     54     56     58     59     1  0.0000000  0.6694400  3
     50     48     47     51     1  180.0000771  10.0416000  2
     49     48     47     51     1  180.0000771  10.0416000  2
     46     45     47     48     1  180.0000771  10.6692000  2
     46     45     47     51     1  180.0000771  10.6692000  2
     45     47     48     49     1  180.0000771  10.0416000  2
     45     47     48     50     1  180.0000771  10.0416000  2
     44     43     42     52     1  180.0000771  7.7404000  2
     44     43     45     46     1  180.0000771  27.8236000  2
     44     43     45     47     1  180.0000771  27.8236000  2
     42     40     56     57     1  0.0000000  0.6508444  3
     42     43     45     46     1  180.0000771  27.8236000  2
     41     40     42     43     1  0.0000000  0.0000000  2
     41     40     42     52     1  0.0000000  0.0000000  2
     41     40     56     54     1  0.0000000  0.6508444  3
     41     40     56     57     1  0.0000000  0.6508444  3
     41     40     56     58     1  0.0000000  0.6508444  3
     40     42     43     44     1  180.0000771  7.7404000  2
     40     56     54     55     1  0.0000000  0.6508444  3
     40     56     58     59     1  0.0000000  1.0460000  1
     40     56     58     59     1  0.0000000  0.6694400  3
     39     37     54     55     1  0.0000000  1.0460000  1
     39     37     54     55     1  0.0000000  0.0000000  3
     39     40     56     57     1  0.0000000  1.0460000  1
     39     40     56     57     1  0.0000000  0.0000000  3
     38     37     39     40     1  0.0000000  1.6038667  3
     38     37     54     55     1  0.0000000  0.6508444  3
     38     37     54     56     1  0.0000000  0.6508444  3
     38     37     54     60     1  0.0000000  1.0460000  1
     38     37     54     60     1  0.0000000  0.0000000  3
     37     39     40     41     1  0.0000000  1.6038667  3
     37     54     56     57     1  0.0000000  0.6508444  3
     36     34     37     38     1  0.0000000  0.6508444  3
     36     34     37     39     1  0.0000000  1.0460000  1
     36     34     37     39     1  0.0000000  0.0000000  3
     36     34     37     54     1  0.0000000  0.6508444  3
     35     34     37     38     1  0.0000000  0.6508444  3
     35     34     37     39     1  0.0000000  1.0460000  1
     35     34     37     39     1  0.0000000  0.0000000  3
     35     34     37     54     1  0.0000000  0.6508444  3
     34     37     54     55     1  0.0000000  0.6508444  3
     33     34     37     38     1  0.0000000  1.0460000  1
     33     34     37     38     1  0.0000000  0.0000000  3
     30     33     34     35     1  0.0000000  1.6038667  3
     30     33     34     36     1  0.0000000  1.6038667  3
     88     87     85     91     1  0.0000000  1.0460000  1
     88     87     85     91     1  0.0000000  0.0000000  3
     88     87     89     90     1  0.0000000  0.6973333  3
     86     85     87     88     1  0.0000000  0.6508444  3
     86     85     87     89     1  0.0000000  1.0460000  1
     86     85     87     89     1  0.0000000  0.0000000  3
     86     85     91     92     1  0.0000000  1.6038667  3
     85     87     89     90     1  0.0000000  1.0460000  1
     85     87     89     90     1  0.0000000  0.6694400  3
     81     79     78     82     1  180.0000771  10.0416000  2
     80     79     78     82     1  180.0000771  10.0416000  2
     77     76     78     79     1  180.0000771  10.6692000  2
     77     76     78     82     1  180.0000771  10.6692000  2
     76     78     79     80     1  180.0000771  10.0416000  2
     76     78     79     81     1  180.0000771  10.0416000  2
     75     74     73     83     1  180.0000771  7.7404000  2
     75     74     76     77     1  180.0000771  27.8236000  2
     75     74     76     78     1  180.0000771  27.8236000  2
     73     71     87     88     1  0.0000000  0.6508444  3
     73     74     76     77     1  180.0000771  27.8236000  2
     72     71     73     74     1  0.0000000  0.0000000  2
     72     71     73     83     1  0.0000000  0.0000000  2
     72     71     87     85     1  0.0000000  0.6508444  3
     72     71     87     88     1  0.0000000  0.6508444  3
     72     71     87     89     1  0.0000000  0.6508444  3
     71     73     74     75     1  180.0000771  7.7404000  2
     71     87     85     86     1  0.0000000  0.6508444  3
     71     87     89     90     1  0.0000000  1.0460000  1
     71     87     89     90     1  0.0000000  0.6694400  3
     70     68     85     86     1  0.0000000  1.0460000  1
     70     68     85     86     1  0.0000000  0.0000000  3
     70     71     87     88     1  0.0000000  1.0460000  1
     70     71     87     88     1  0.0000000  0.0000000  3
     69     68     70     71     1  0.0000000  1.6038667  3
     69     68     85     86     1  0.0000000  0.6508444  3
     69     68     85     87     1  0.0000000  0.6508444  3
     69     68     85     91     1  0.0000000  1.0460000  1
     69     68     85     91     1  0.0000000  0.0000000  3
     68     70     71     72     1  0.0000000  1.6038667  3
     68     85     87     88     1  0.0000000  0.6508444  3
     67     65     68     69     1  0.0000000  0.6508444  3
     67     65     68     70     1  0.0000000  1.0460000  1
     67     65     68     70     1  0.0000000  0.0000000  3
     67     65     68     85     1  0.0000000  0.6508444  3
     66     65     68     69     1  0.0000000  0.6508444  3
     66     65     68     70     1  0.0000000  1.0460000  1
     66     65     68     70     1  0.0000000  0.0000000  3
     66     65     68     85     1  0.0000000  0.6508444  3
     65     68     85     86     1  0.0000000  0.6508444  3
     64     65     68     69     1  0.0000000  1.0460000  1
     64     65     68     69     1  0.0000000  0.0000000  3
     61     64     65     66     1  0.0000000  1.6038667  3
     61     64     65     67     1  0.0000000  1.6038667  3
    119    118    116    122     1  0.0000000  1.0460000  1
    119    118    116    122     1  0.0000000  0.0000000  3
    119    118    120    121     1  0.0000000  0.6973333  3
    118    116    122    123     1  0.0000000  1.0460000  1
    118    116    122    123     1  0.0000000  0.6694400  3
    117    116    118    119     1  0.0000000  0.6508444  3
    117    116    118    120     1  0.0000000  1.0460000  1
    117    116    118    120     1  0.0000000  0.0000000  3
    117    116    122    123     1  0.0000000  0.6973333  3
    116    118    120    121     1  0.0000000  1.0460000  1
    116    118    120    121     1  0.0000000  0.6694400  3
    112    110    109    113     1  180.0000771  10.0416000  2
    111    110    109    113     1  180.0000771  10.0416000  2
    108    107    109    110     1  180.0000771  10.6692000  2
    108    107    109    113     1  180.0000771  10.6692000  2
    107    109    110    111     1  180.0000771  10.0416000  2
    107    109    110    112     1  180.0000771  10.0416000  2
    106    105    104    114     1  180.0000771  7.7404000  2
    106    105    107    108     1  180.0000771  27.8236000  2
    106    105    107    109     1  180.0000771  27.8236000  2
    104    102    118    119     1  0.0000000  0.6508444  3
    104    105    107    108     1  180.0000771  27.8236000  2
    103    102    104    105     1  0.0000000  0.0000000  2
    103    102    104    114     1  0.0000000  0.0000000  2
    103    102    118    116     1  0.0000000  0.6508444  3
    103    102    118    119     1  0.0000000  0.6508444  3
    103    102    118    120     1  0.0000000  0.6508444  3
    102    104    105    106     1  180.0000771  7.7404000  2
    102    118    116    117     1  0.0000000  0.6508444  3
    102    118    120    121     1  0.0000000  1.0460000  1
    102    118    120    121     1  0.0000000  0.6694400  3
    101     99    116    117     1  0.0000000  1.0460000  1
    101     99    116    117     1  0.0000000  0.0000000  3
    101    102    118    119     1  0.0000000  1.0460000  1
    101    102    118    119     1  0.0000000  0.0000000  3
    100     99    101    102     1  0.0000000  1.6038667  3
    100     99    116    117     1  0.0000000  0.6508444  3
    100     99    116    118     1  0.0000000  0.6508444  3
    100     99    116    122     1  0.0000000  1.0460000  1
    100     99    116    122     1  0.0000000  0.0000000  3
     99    101    102    103     1  0.0000000  1.6038667  3
     99    116    118    119     1  0.0000000  0.6508444  3
     99    116    122    123     1  0.0000000  1.0460000  1
     99    116    122    123     1  0.0000000  0.6694400  3
     98     96     99    100     1  0.0000000  0.6508444  3
     98     96     99    101     1  0.0000000  1.0460000  1
     98     96     99    101     1  0.0000000  0.0000000  3
     98     96     99    116     1  0.0000000  0.6508444  3
     97     96     99    100     1  0.0000000  0.6508444  3
     97     96     99    101     1  0.0000000  1.0460000  1
     97     96     99    101     1  0.0000000  0.0000000  3
     97     96     99    116     1  0.0000000  0.6508444  3
     96     99    116    117     1  0.0000000  0.6508444  3
     95     96     99    100     1  0.0000000  1.0460000  1
     95     96     99    100     1  0.0000000  0.0000000  3
     92     95     96     97     1  0.0000000  1.6038667  3
     92     95     96     98     1  0.0000000  1.6038667  3
     16     18     17     19     4  180.0000771  4.1840000  2
     12     16     14     15     4  180.0000771  4.6024000  2
     11     14     12     13     4  180.0000771  4.6024000  2
     47     49     48     50     4  180.0000771  4.1840000  2
     43     47     45     46     4  180.0000771  4.6024000  2
     42     45     43     44     4  180.0000771  4.6024000  2
     78     80     79     81     4  180.0000771  4.1840000  2
     74     78     76     77     4  180.0000771  4.6024000  2
     73     76     74     75     4  180.0000771  4.6024000  2
    109    111    110    112     4  180.0000771  4.1840000  2
    105    109    107    108     4  180.0000771  4.6024000  2
    104    107    105    106     4  180.0000771  4.6024000  2


[ moleculetype ]
; Name            nrexcl
Na+          3

[ atoms ]
;   nr       type  resnr residue  atom   cgnr    charge       mass  typeB    chargeB      massB
; residue    1 Na+ rtp Na+ q 1.0
    1        Na+      1    Na+    Na+      1 1.00000000  22.990000   ; qtot 1.000000


[ moleculetype ]
; Name            nrexcl
Cl-          3

[ atoms ]
;   nr       type  resnr residue  atom   cgnr    charge       mass  typeB    chargeB      massB
; residue    1 Cl- rtp Cl- q -1.0
    1        Cl-      1    Cl-    Cl-      1 -1.00000000  35.450000   ; qtot -1.000000


[ moleculetype ]
; Name            nrexcl
WAT          3

[ atoms ]
;   nr       type  resnr residue  atom   cgnr    charge       mass  typeB    chargeB      massB
; residue    1 WAT rtp WAT q 0.0
    1         OW      1    WAT      O      1 -0.83400000  16.000000   ; qtot -0.834000
    2         HW      1    WAT     H1      2 0.41700000   1.008000   ; qtot -0.417000
    3         HW      1    WAT     H2      3 0.41700000   1.008000   ; qtot 0.000000

#ifdef FLEXIBLE

[ bonds ]
;    ai     aj funct         c0         c1         c2         c3
      2      1     1   0.09572 462750.400000
      3      1     1   0.09572 462750.400000
      3      2     1   0.15136 462750.400000


#else

[ settles ]
; i     funct   doh     dhh
1     1   0.09572000   0.15136000

#endif

[ exclusions ]
1  2  3
2  1  3
3  1  2

[ system ]
; Name
Generic title

[ molecules ]
; Compound       #mols
system1              1
Na+                  8
Cl-                  5
WAT               1991
