Generic title
 6109
    1C5    HO5'    1   1.383   1.969   0.369  1.6642  0.9016  0.2101
    1C5     O5'    2   1.322   1.981   0.442  0.6240 -0.6273 -0.3599
    1C5     C5'    3   1.209   2.050   0.401 -0.5878 -0.0317 -0.5153
    1C5     H5'    4   1.230   2.116   0.317 -0.7580 -0.1976 -0.6869
    1C5    H5''    5   1.180   2.118   0.481 -0.2937  1.2144 -1.4351
    1C5     C4'    6   1.094   1.962   0.366  0.1047  0.1467  0.7483
    1C5     H4'    7   1.008   2.022   0.338  0.0715  0.2546  1.0824
    1C5     O4'    8   1.135   1.868   0.266 -0.2558 -0.0375  0.2540
    1C5     C1'    9   1.074   1.741   0.282 -0.1290  1.0389  0.3219
    1C5     H1'   10   1.019   1.703   0.196 -0.5203 -1.8208  1.6991
    1C5      N1   11   1.186   1.645   0.305  0.1903 -0.5919 -0.3738
    1C5      C6   12   1.318   1.666   0.263 -0.2355  0.2829  0.4438
    1C5      H6   13   1.337   1.754   0.204 -2.2612  1.1343  0.9651
    1C5      C5   14   1.420   1.580   0.288  0.3904 -0.0975 -0.1053
    1C5      H5   15   1.519   1.600   0.250 -0.0739 -2.3851 -2.8512
    1C5      C4   16   1.383   1.458   0.353 -0.6375  0.9005  0.3217
    1C5      N4   17   1.468   1.368   0.386  0.0892  0.0028  0.2845
    1C5     H41   18   1.433   1.287   0.434  0.1214 -1.1760 -1.5984
    1C5     H42   19   1.565   1.392   0.368 -0.3514  1.0169 -0.8676
    1C5      N3   20   1.260   1.426   0.383  0.2332  0.8956  0.0310
    1C5      C2   21   1.158   1.512   0.351  0.6591  0.0172  0.5644
    1C5      O2   22   1.041   1.467   0.351  0.5775  0.3629  0.0380
    1C5     C3'   23   1.048   1.870   0.479 -0.3710  0.9616  0.3443
    1C5     H3'   24   1.130   1.836   0.542 -0.1419 -2.3845 -1.5200
    1C5     C2'   25   0.983   1.757   0.400  0.7476 -0.2345 -0.3505
    1C5     H2'   26   0.987   1.670   0.465  0.1506 -0.5987 -0.7916
    1C5     O2'   27   0.846   1.791   0.358  0.1039 -0.9157 -0.2055
    1C5    HO2'   28   0.823   1.845   0.434 -1.0075  0.3780 -1.4276
    1C5     O3'   29   0.944   1.933   0.552 -0.0749  0.7406 -0.6618
    2C        P   30   0.952   1.964   0.711  0.1241  0.1015 -0.1157
    2C      OP1   31   0.813   1.994   0.749  0.2295 -0.1708  0.7430
    2C      OP2   32   1.056   2.063   0.727 -0.7195 -0.1739 -0.2931
    2C      O5'   33   1.011   1.827   0.775  0.5531 -0.3609  0.0345
    2C      C5'   34   0.932   1.705   0.776  0.2736  0.0588  0.2262
    2C      H5'   35   0.890   1.697   0.676  0.4825 -0.1823  0.1583
    2C     H5''   36   0.857   1.704   0.856 -0.7023  1.4588 -0.6238
    2C      C4'   37   1.012   1.575   0.802 -0.8235  0.0805  0.2298
    2C      H4'   38   0.944   1.490   0.814  0.4715 -0.7919  1.8769
    2C      O4'   39   1.097   1.552   0.696 -0.0118  1.0411 -0.2994
    2C      C1'   40   1.210   1.482   0.748  0.4811  0.0052  0.1862
    2C      H1'   41   1.202   1.382   0.707  0.9085  0.2358 -0.4697
    2C       N1   42   1.342   1.549   0.709 -0.1556  0.7403 -0.5271
    2C       C6   43   1.353   1.682   0.679 -0.0584  0.2405 -0.5814
    2C       H6   44   1.259   1.734   0.668 -0.0795  0.1416 -0.8640
    2C       C5   45   1.476   1.741   0.657 -0.5711  0.5022  0.2113
    2C       H5   46   1.487   1.844   0.629  1.2402  0.4029  0.4543
    2C       C4   47   1.589   1.653   0.669 -0.0522  0.3213 -0.2752
    2C       N4   48   1.712   1.689   0.654 -0.3145 -0.1491 -0.3157
    2C      H41   49   1.789   1.627   0.676  0.6764  1.7275  2.0006
    2C      H42   50   1.730   1.784   0.625 -0.3458 -0.1947 -0.4852
    2C       N3   51   1.574   1.521   0.684  0.2300 -0.1189 -0.1429
    2C       C2   52   1.457   1.469   0.702  0.1559  0.2279  0.5677
    2C       O2   53   1.446   1.347   0.715 -0.1091  0.1588  0.1033
    2C      C3'   54   1.096   1.587   0.931 -0.2119  0.4048  0.2164
    2C      H3'   55   1.141   1.686   0.938  1.2107 -0.0381 -1.7147
    2C      C2'   56   1.193   1.472   0.898  0.2606  0.6344 -0.9639
    2C      H2'   57   1.285   1.492   0.953  1.7014 -2.0377 -2.2165
    2C      O2'   58   1.136   1.343   0.924 -0.6873 -0.1597 -0.2746
    2C     HO2'   59   1.054   1.355   0.971 -1.1111  0.4832 -1.1521
    2C      O3'   60   1.013   1.555   1.037 -0.4761  0.2137  0.1574
    3C        P   61   1.041   1.618   1.184  0.1306  0.0020 -0.1336
    3C      OP1   62   0.948   1.565   1.281  0.5111  0.1334 -0.1670
    3C      OP2   63   1.037   1.768   1.164  0.5039 -0.0867  0.0201
    3C      O5'   64   1.184   1.585   1.237  0.5100  0.6826 -0.0716
    3C      C5'   65   1.213   1.454   1.276  0.0277 -0.1862  0.0413
    3C      H5'   66   1.184   1.386   1.196 -0.8109  0.8824 -0.5977
    3C     H5''   67   1.160   1.429   1.368  0.4616 -1.6146 -0.0743
    3C      C4'   68   1.365   1.429   1.285  0.4686 -0.0106 -0.6343
    3C      H4'   69   1.382   1.326   1.317 -1.0342 -0.1686 -0.2971
    3C      O4'   70   1.428   1.451   1.152  0.7099 -0.0825  0.0319
    3C      C1'   71   1.552   1.514   1.168 -0.5021  0.2273 -0.7456
    3C      H1'   72   1.635   1.456   1.127  0.7370  1.6643 -0.3711
    3C       N1   73   1.556   1.642   1.092  0.0737 -0.2729  0.3918
    3C       C6   74   1.445   1.705   1.058 -1.2996 -0.0471  0.2538
    3C       H6   75   1.350   1.680   1.103 -1.1894 -2.0037 -0.5452
    3C       C5   76   1.453   1.824   0.992 -0.2534  0.0732  0.2884
    3C       H5   77   1.360   1.876   0.974 -0.7258  0.2132  2.7071
    3C       C4   78   1.578   1.873   0.950 -0.1507 -1.2056  0.7800
    3C       N4   79   1.590   1.983   0.888  0.8113  0.0132 -0.1101
    3C      H41   80   1.687   2.010   0.880  0.8990 -0.2040  0.1769
    3C      H42   81   1.505   2.036   0.877 -0.1231 -1.5129 -0.3969
    3C       N3   82   1.689   1.800   0.967  0.3709  0.4696  0.2097
    3C       C2   83   1.679   1.690   1.043 -0.0324  0.3251 -0.6935
    3C       O2   84   1.783   1.629   1.073  0.4582 -0.1316  0.0818
    3C      C3'   85   1.437   1.523   1.377  0.8396 -0.7632 -0.4148
    3C      H3'   86   1.389   1.621   1.365  1.3398 -0.2924  1.2170
    3C      C2'   87   1.570   1.523   1.321 -0.4279  0.1198  0.1961
    3C      H2'   88   1.631   1.609   1.350 -0.2524  0.0098  0.1528
    3C      O2'   89   1.657   1.416   1.357 -0.4304 -0.4186  0.6782
    3C     HO2'   90   1.653   1.415   1.453  0.7477 -0.4780  0.7315
    3C      O3'   91   1.429   1.482   1.517 -0.3293 -0.3383  0.3108
    4C3       P   92   1.398   1.587   1.632 -0.1628 -0.1037 -0.0456
    4C3     OP1   93   1.444   1.522   1.758 -0.7640  0.3392  0.5079
    4C3     OP2   94   1.264   1.638   1.619 -0.3724 -0.1511 -0.0380
    4C3     O5'   95   1.490   1.716   1.608 -0.2139 -0.2406 -0.3466
    4C3     C5'   96   1.635   1.708   1.617  0.7633  0.6003  0.2102
    4C3     H5'   97   1.663   1.617   1.564 -0.2809  0.7706 -0.6619
    4C3    H5''   98   1.659   1.692   1.722 -0.2957  0.4919  0.4474
    4C3     C4'   99   1.700   1.829   1.542 -0.4102  0.3987  0.1354
    4C3     H4'  100   1.806   1.823   1.565 -0.4392  1.4121  0.6111
    4C3     O4'  101   1.693   1.842   1.401 -0.0299  0.6623  0.1758
    4C3     C1'  102   1.666   1.975   1.359  0.0355  0.7181  0.0983
    4C3     H1'  103   1.731   1.996   1.274 -1.9568 -1.2948 -2.0950
    4C3      N1  104   1.522   1.987   1.310  0.3811 -0.0959 -0.2268
    4C3      C6  105   1.428   1.892   1.337  1.2446  0.3211  0.2619
    4C3      H6  106   1.448   1.808   1.400 -0.6979 -1.6076 -1.5012
    4C3      C5  107   1.302   1.904   1.294  0.8390 -0.4052  0.0347
    4C3      H5  108   1.237   1.819   1.311  1.6886 -0.6707  2.4426
    4C3      C4  109   1.273   2.012   1.204 -0.0041  0.4831  0.3579
    4C3      N4  110   1.161   2.020   1.134 -0.2583 -0.3937  0.0953
    4C3     H41  111   1.153   2.096   1.067 -1.3603 -0.5908 -0.0137
    4C3     H42  112   1.097   1.942   1.132 -0.7618  0.0161 -1.4503
    4C3      N3  113   1.361   2.109   1.184  0.0503  0.3313 -0.1378
    4C3      C2  114   1.486   2.098   1.234  0.1200 -0.2346 -0.2642
    4C3      O2  115   1.571   2.183   1.209  0.0571 -0.8304 -0.6876
    4C3     C3'  116   1.643   1.962   1.585 -0.3784  0.5704 -0.2095
    4C3     H3'  117   1.535   1.964   1.576 -0.4676  2.3310  0.7372
    4C3     C2'  118   1.693   2.061   1.483  0.3260 -0.9094  0.5604
    4C3     H2'  119   1.630   2.149   1.492  0.1895 -0.7259 -1.6607
    4C3     O2'  120   1.827   2.090   1.487 -0.2604 -0.1100  0.3351
    4C3    HO2'  121   1.884   2.014   1.475  0.2182  0.5722 -2.5102
    4C3     O3'  122   1.690   1.998   1.719  0.2852  0.5989  0.4189
    4C3    HO3'  123   1.775   2.043   1.712  0.5706 -0.1063 -1.0635
    5Na+    Na+  124   0.697   1.981   0.932 -0.1426 -0.1694  0.0142
    6Na+    Na+  125   1.781   2.971   3.635  0.3094  0.6301 -0.3472
    7Na+    Na+  126   1.188   2.493   1.249  0.0390 -0.0066  0.1873
    8Na+    Na+  127   3.154   2.587   2.764 -0.0417  0.2797  0.0255
    9Na+    Na+  128   2.385   1.220   3.325  0.5225  0.0423  0.3264
   10Na+    Na+  129   0.234   0.861   0.836 -0.2583 -0.2076 -0.3672
   11Na+    Na+  130   1.600   1.826   2.594  0.2274  0.2121 -0.2686
   12Na+    Na+  131   1.019   3.745   0.466  0.1202  0.1517  0.7064
   13Cl-    Cl-  132   3.698   2.424   3.056  0.0772 -0.2106  0.0409
   14Cl-    Cl-  133   1.958   2.794   0.613  0.3624 -0.1995  0.0352
   15Cl-    Cl-  134   3.442   2.092   0.029  0.4077 -0.1229 -0.2669
   16Cl-    Cl-  135   3.022   3.320   2.526  0.3039 -0.3484 -0.2128
   17Cl-    Cl-  136   2.694   2.460   1.602  0.2339 -0.2980  0.2181
   18WAT      O  137   2.149   1.574   1.827  0.0179 -0.4745  0.5177
   18WAT     H1  138   2.119   1.648   1.880  1.8319  1.7749 -1.3866
   18WAT     H2  139   2.244   1.573   1.841  0.6861  0.6826 -3.1118
   19WAT      O  140   0.090   2.265   2.418 -0.3702 -0.5674 -0.0555
   19WAT     H1  141   0.173   2.302   2.387 -0.7275  0.8690  0.6328
   19WAT     H2  142   0.023   2.315   2.371 -0.8705  0.0104  1.2404
   20WAT      O  143   2.109   2.195   2.755 -0.2371  0.0261  0.0038
   20WAT     H1  144   2.089   2.276   2.708  2.6030 -0.0694 -1.5826
   20WAT     H2  145   2.119   2.221   2.846 -0.0213  1.3452 -0.3791
   21WAT      O  146   2.643   3.416   1.110 -0.5907 -0.2321 -0.0638
   21WAT     H1  147   2.600   3.482   1.164 -0.0316  0.5752 -0.5834
   21WAT     H2  148   2.676   3.465   1.034  0.5632 -0.9609 -0.0575
   22WAT      O  149   2.931   1.559   2.527  0.1633 -0.1590 -0.0780
   22WAT     H1  150   2.884   1.585   2.606 -0.5725  0.4247 -0.6854
   22WAT     H2  151   3.020   1.542   2.556 -0.1254 -0.0675  0.8915
   23WAT      O  152   2.580   3.832   2.018  0.3861  0.4493 -0.5085
   23WAT     H1  153   2.620   3.887   2.085 -0.3776 -0.7355  0.9910
   23WAT     H2  154   2.574   3.745   2.059 -0.9438 -0.1000 -1.7815
   24WAT      O  155   0.232   3.348   1.445  0.1318 -0.6823  0.0120
   24WAT     H1  156   0.245   3.353   1.350 -3.3668 -0.8578 -0.5975
   24WAT     H2  157   0.239   3.439   1.475  1.3754 -0.6394 -0.3563
   25WAT      O  158   1.014   2.614   3.347 -0.0899 -0.3587 -0.4505
   25WAT     H1  159   1.052   2.631   3.260 -2.0549 -0.3566 -1.3736
   25WAT     H2  160   1.029   2.694   3.397  0.8259 -0.2530 -0.8875
   26WAT      O  161   2.279   1.999   1.248  0.3049 -0.1450  0.0218
   26WAT     H1  162   2.287   2.025   1.157 -1.3173  1.0671  0.1875
   26WAT     H2  163   2.341   2.054   1.295  0.3464  0.0186 -0.2243
   27WAT      O  164   3.373   1.880   3.420 -0.8168 -0.4017  0.1745
   27WAT     H1  165   3.424   1.930   3.483  0.2836  0.0299 -1.0045
   27WAT     H2  166   3.413   1.900   3.335 -1.5315 -1.8300 -0.5450
   28WAT      O  167   2.829   0.629   2.579 -0.1635  0.1972 -0.2565
   28WAT     H1  168   2.828   0.658   2.487 -2.7731 -0.4730 -0.5315
   28WAT     H2  169   2.755   0.569   2.585 -1.9256  2.4034  2.9306
   29WAT      O  170   0.660   3.516   2.445  0.1661 -0.0963  0.0582
   29WAT     H1  171   0.722   3.457   2.488  0.8718 -0.6550 -1.6210
   29WAT     H2  172   0.699   3.603   2.456 -0.3978 -0.0216  1.7267
   30WAT      O  173   1.251   3.202   0.304  0.5464  0.2192 -0.7165
   30WAT     H1  174   1.274   3.292   0.330 -1.2931  0.1826  1.2828
   30WAT     H2  175   1.236   3.209   0.210 -0.2404  2.1936 -0.5075
   31WAT      O  176   2.362   3.601   3.514 -0.9208 -0.0562 -0.6590
   31WAT     H1  177   2.457   3.591   3.521 -0.5763  2.4034 -0.6518
   31WAT     H2  178   2.327   3.551   3.588  0.3905 -0.7347 -0.4722
   32WAT      O  179   0.134   2.844   3.682  0.4364  0.0547  0.1951
   32WAT     H1  180   0.166   2.929   3.651 -1.5680  0.7043 -0.2529
   32WAT     H2  181   0.119   2.857   3.776 -2.3201  1.1116 -0.2951
   33WAT      O  182   3.318   2.283   3.415  0.4098  0.5730 -0.3363
   33WAT     H1  183   3.322   2.356   3.477  2.9659  0.1517  0.1066
   33WAT     H2  184   3.402   2.286   3.368 -0.2682 -0.8635 -1.7604
   34WAT      O  185   0.085   2.024   3.567 -0.1530 -0.4796  0.6227
   34WAT     H1  186   0.176   2.051   3.580  0.7182 -3.3905  1.2073
   34WAT     H2  187   0.086   1.973   3.486 -1.1316 -1.0826  0.9704
   35WAT      O  188   1.981   2.925   1.057  0.1935  0.4421  0.0535
   35WAT     H1  189   1.918   2.988   1.021 -0.5956  0.1386  0.8768
   35WAT     H2  190   1.982   2.854   0.993 -2.9588 -1.1993  1.6195
   36WAT      O  191   2.831   2.104   2.807 -0.7542  0.2699  0.2518
   36WAT     H1  192   2.841   2.176   2.744 -0.6518  2.3077  2.4296
   36WAT     H2  193   2.880   2.134   2.884 -0.7670 -2.1629  1.2708
   37WAT      O  194   0.041   2.123   3.890 -0.6529  0.2254 -0.0646
   37WAT     H1  195  -0.053   2.139   3.899 -0.5696  2.2248 -1.9275
   37WAT     H2  196   0.048   2.030   3.870 -2.2064  0.0022  0.2835
   38WAT      O  197   0.975   1.253   1.322 -0.1215  0.2568 -0.0470
   38WAT     H1  198   0.930   1.337   1.331  0.9353  0.9843 -1.3697
   38WAT     H2  199   1.040   1.253   1.392  1.9466  1.9407 -1.8161
   39WAT      O  200   1.517   2.494   3.430  0.4947 -0.4595 -0.4200
   39WAT     H1  201   1.572   2.514   3.505 -0.0730  0.2953 -0.1956
   39WAT     H2  202   1.529   2.568   3.370  0.3220 -0.6630 -0.7112
   40WAT      O  203   2.699   3.807   0.086  0.0047 -0.5980 -0.2173
   40WAT     H1  204   2.730   3.759   0.009  0.5084 -1.4889  0.5279
   40WAT     H2  205   2.721   3.898   0.067  1.3955 -0.9798 -0.5257
   41WAT      O  206   0.110   1.581   0.366  0.8742  0.6959  0.1596
   41WAT     H1  207   0.165   1.574   0.289  0.1469  2.7593 -0.6033
   41WAT     H2  208   0.021   1.566   0.334  0.7544 -0.8838  1.0764
   42WAT      O  209   3.237   0.882   1.470  0.2948 -0.7531 -0.0481
   42WAT     H1  210   3.311   0.888   1.531  0.6887 -0.9596 -0.5029
   42WAT     H2  211   3.176   0.951   1.499  0.4153 -0.9413  0.6615
   43WAT      O  212   3.521   0.820   1.707  0.0020  0.3609 -0.1942
   43WAT     H1  213   3.606   0.852   1.676 -0.2572  0.9275 -0.3365
   43WAT     H2  214   3.536   0.796   1.798  0.4133  0.0737 -0.3363
   44WAT      O  215   2.504   2.327   2.617  0.1386 -0.2736 -0.0986
   44WAT     H1  216   2.485   2.312   2.524  0.1060  1.8894 -0.4942
   44WAT     H2  217   2.470   2.249   2.661  0.6251 -1.5855 -1.9383
   45WAT      O  218   3.294   0.571   3.112 -0.2690  0.4543  0.2581
   45WAT     H1  219   3.212   0.522   3.101  0.1644 -0.0602 -0.7515
   45WAT     H2  220   3.335   0.570   3.025  1.7457 -0.9517  1.1499
   46WAT      O  221   2.432   0.542   2.201 -0.3885 -0.3065  0.2332
   46WAT     H1  222   2.516   0.558   2.158 -1.1551  0.4562 -1.0419
   46WAT     H2  223   2.422   0.447   2.199  0.3161 -0.3818  0.1419
   47WAT      O  224   1.549   3.409   1.773  0.0824 -0.1720 -0.8609
   47WAT     H1  225   1.518   3.326   1.736  1.4405 -0.1973 -1.9834
   47WAT     H2  226   1.582   3.458   1.699 -0.3819  1.2593 -0.1561
   48WAT      O  227   2.736   3.192   2.667 -0.1999 -0.4194  0.0403
   48WAT     H1  228   2.830   3.200   2.650 -0.4044 -0.1256 -0.9973
   48WAT     H2  229   2.726   3.103   2.701  0.3142 -0.8238 -0.8351
   49WAT      O  230   2.058   3.945   3.951  0.0518 -0.2577  0.2225
   49WAT     H1  231   2.009   4.012   3.999 -0.3304 -0.3786  0.0116
   49WAT     H2  232   2.017   3.943   3.865  1.5367  0.8274 -0.5387
   50WAT      O  233   1.600   0.588   0.676 -0.1199 -0.9108 -0.2820
   50WAT     H1  234   1.660   0.610   0.604  2.1195 -1.7954  1.1755
   50WAT     H2  235   1.553   0.511   0.645  0.1125 -0.7231 -1.1439
   51WAT      O  236   3.267   1.938   0.681 -0.5240  0.1405  0.1848
   51WAT     H1  237   3.336   1.983   0.729 -0.3104  0.4003 -0.3575
   51WAT     H2  238   3.279   1.966   0.590  0.8509 -2.5039 -0.5490
   52WAT      O  239   1.518   3.017   1.030  0.0675  0.3362 -0.6818
   52WAT     H1  240   1.558   2.942   0.986  0.5944  0.3705 -0.2714
   52WAT     H2  241   1.434   3.029   0.985  0.0343 -0.4129 -0.8434
   53WAT      O  242   0.583   1.811   0.846  0.2929 -0.2209  0.2070
   53WAT     H1  243   0.510   1.833   0.787  1.5426  0.1695 -1.2819
   53WAT     H2  244   0.556   1.731   0.889 -0.9684 -0.1515 -0.4027
   54WAT      O  245   1.667   2.379   1.370 -0.2256 -0.3161  0.1683
   54WAT     H1  246   1.750   2.400   1.328 -0.7223  0.8729 -0.2558
   54WAT     H2  247   1.645   2.291   1.339 -0.4488  0.4119 -1.8812
   55WAT      O  248   3.164   4.055   1.872 -0.0392  0.0188  0.3628
   55WAT     H1  249   3.131   4.140   1.844 -1.3089 -1.3172 -2.7878
   55WAT     H2  250   3.236   4.036   1.812  0.6997 -0.8129  1.4826
   56WAT      O  251   1.842   3.506   3.218  0.0613  0.1989  0.1801
   56WAT     H1  252   1.909   3.455   3.264  0.7817 -0.9167 -1.9501
   56WAT     H2  253   1.761   3.457   3.234  0.0644  0.4992  1.2095
   57WAT      O  254   1.003   2.844   0.519  0.0666 -0.1453  0.1682
   57WAT     H1  255   1.027   2.926   0.476  2.6823  0.0809  1.7933
   57WAT     H2  256   0.908   2.847   0.525 -0.0127  2.0863 -1.0975
   58WAT      O  257   2.136   0.572   2.518  0.4765 -0.0173 -0.2066
   58WAT     H1  258   2.098   0.652   2.481  0.5370 -0.6136 -1.6158
   58WAT     H2  259   2.185   0.602   2.595 -0.9080  1.0695  0.3100
   59WAT      O  260   2.495   1.374   0.373  0.4089 -0.1472 -0.0169
   59WAT     H1  261   2.476   1.467   0.383  0.7232 -0.1336  0.5353
   59WAT     H2  262   2.435   1.331   0.434  0.8954 -0.2331  0.4073
   60WAT      O  263   0.353   3.941   2.786  0.4989 -0.6272  0.4948
   60WAT     H1  264   0.276   3.995   2.769 -0.2095 -1.9597 -0.7936
   60WAT     H2  265   0.425   4.003   2.797 -0.3495  0.5694 -0.5733
   61WAT      O  266   0.834   0.703   3.194  0.2448  0.0908 -0.5613
   61WAT     H1  267   0.750   0.746   3.210 -0.1841  0.0020 -2.4157
   61WAT     H2  268   0.867   0.682   3.282 -1.1902  1.0067  0.2353
   62WAT      O  269   2.881   0.840   0.544 -0.1160 -0.1691 -0.0413
   62WAT     H1  270   2.878   0.752   0.505  0.1604 -0.2167  0.0371
   62WAT     H2  271   2.934   0.891   0.482  1.6173 -0.6279  0.9794
   63WAT      O  272   0.221   3.052   2.351  0.1428  0.3052 -0.5115
   63WAT     H1  273   0.258   3.138   2.331  0.7125  0.1501 -0.1473
   63WAT     H2  274   0.253   3.031   2.439  0.0080 -0.2779 -0.5912
   64WAT      O  275   0.819   3.467   2.830  0.2537 -0.0114  0.1316
   64WAT     H1  276   0.844   3.444   2.740  0.7799  0.1135  0.2457
   64WAT     H2  277   0.729   3.435   2.838 -0.1675  0.8912 -0.7768
   65WAT      O  278   3.113   0.091   2.301 -0.5396  0.2482  0.5145
   65WAT     H1  279   3.051   0.099   2.228  0.4512 -0.6148 -0.4595
   65WAT     H2  280   3.073   0.141   2.372 -2.6385 -0.7745  0.1253
   66WAT      O  281   2.265   2.904   2.842  0.0532 -0.0492 -0.5362
   66WAT     H1  282   2.273   2.810   2.822  1.8485  0.0461 -0.4565
   66WAT     H2  283   2.326   2.946   2.782  0.4674  0.8995  0.5037
   67WAT      O  284   3.289   2.463   1.095 -0.4747  0.0744 -0.4857
   67WAT     H1  285   3.210   2.416   1.122  0.9746 -1.2551  1.8018
   67WAT     H2  286   3.279   2.550   1.132 -0.7134 -0.1912  0.0812
   68WAT      O  287   2.581   3.454   3.922 -0.0818  0.0541  0.1276
   68WAT     H1  288   2.607   3.544   3.899  0.9361 -0.3169 -0.2480
   68WAT     H2  289   2.616   3.441   4.010 -0.7477  0.2277  0.4162
   69WAT      O  290   3.469   2.949   2.861 -0.0625 -0.2804  0.2216
   69WAT     H1  291   3.511   2.894   2.926 -1.2567 -0.8486  0.5499
   69WAT     H2  292   3.518   2.933   2.780 -1.2830 -3.0471 -0.0712
   70WAT      O  293   2.144   0.572   3.946  0.2903 -0.5104  0.2665
   70WAT     H1  294   2.106   0.533   4.025  0.2817  0.0396  0.5369
   70WAT     H2  295   2.232   0.534   3.940  0.6848  0.2345  1.1323
   71WAT      O  296   3.538   3.545   2.071 -0.2665 -0.0369  0.6804
   71WAT     H1  297   3.562   3.499   1.990 -0.6477 -1.4801  1.3583
   71WAT     H2  298   3.488   3.621   2.041  0.8461  0.2676 -0.4951
   72WAT      O  299   1.703   3.698   0.908  0.0667  0.0851 -0.5828
   72WAT     H1  300   1.714   3.619   0.961  1.6050 -0.2740 -1.3852
   72WAT     H2  301   1.732   3.769   0.965 -0.2071 -0.0548 -0.2637
   73WAT      O  302   2.179   1.576   0.211  0.0518  0.4012 -0.2219
   73WAT     H1  303   2.259   1.590   0.260 -0.3992  0.1175  0.6091
   73WAT     H2  304   2.110   1.615   0.264 -0.2542  1.5409 -1.3973
   74WAT      O  305   3.631   2.558   1.346  0.4218 -0.2867 -0.0785
   74WAT     H1  306   3.551   2.513   1.373 -1.0302  1.1806 -1.6654
   74WAT     H2  307   3.620   2.647   1.378  0.9932  0.1569 -1.0715
   75WAT      O  308   0.986   3.177   0.924  0.0724  0.3238 -0.2648
   75WAT     H1  309   0.894   3.205   0.924  0.5038  2.3557  3.4116
   75WAT     H2  310   0.985   3.090   0.965 -0.2068  0.6498  0.4449
   76WAT      O  311   3.671   2.978   0.404  0.0251  0.3669 -0.1535
   76WAT     H1  312   3.601   2.919   0.376  0.1698  0.0727  0.1023
   76WAT     H2  313   3.716   3.002   0.322  0.0519  0.0129 -0.2432
   77WAT      O  314   3.479   3.195   2.569  0.6129  0.1803  0.3495
   77WAT     H1  315   3.483   3.101   2.584  0.5147  0.0908 -0.1916
   77WAT     H2  316   3.438   3.205   2.483  1.0750  0.6992  0.1785
   78WAT      O  317   1.132   0.629   2.395 -0.1432 -0.0593  0.5730
   78WAT     H1  318   1.160   0.583   2.316  0.7093  1.0806  0.1988
   78WAT     H2  319   1.151   0.568   2.466 -0.3023 -0.8258 -0.0265
   79WAT      O  320   3.322   0.160   0.324  0.5735  0.4419  0.6547
   79WAT     H1  321   3.241   0.204   0.301  0.5733  0.7643  1.2466
   79WAT     H2  322   3.371   0.225   0.375  0.6915 -0.1434  1.3091
   80WAT      O  323   2.160   0.838   0.364 -0.3921 -0.0260  0.0509
   80WAT     H1  324   2.139   0.831   0.271  1.4064 -0.1347 -0.3869
   80WAT     H2  325   2.167   0.932   0.380  0.6682 -0.0424 -0.2738
   81WAT      O  326   1.046   2.006   3.800 -0.5269 -0.1140 -0.1722
   81WAT     H1  327   0.992   1.927   3.801 -0.6317 -0.0713  2.2111
   81WAT     H2  328   1.039   2.042   3.888 -0.6325  2.7043 -1.2314
   82WAT      O  329   2.972   1.991   0.789 -0.5499  0.2302 -0.1686
   82WAT     H1  330   2.966   2.055   0.719 -1.0279  1.7051  1.1728
   82WAT     H2  331   3.039   1.929   0.759 -0.5201  0.9890 -1.7654
   83WAT      O  332   1.179   1.651   2.650 -0.2428 -0.5021  0.0202
   83WAT     H1  333   1.182   1.729   2.596  1.6226 -0.7099 -0.2364
   83WAT     H2  334   1.193   1.579   2.589 -0.5062 -0.9340  0.4573
   84WAT      O  335   1.969   1.087   3.940  0.4069  0.0704  0.3527
   84WAT     H1  336   1.919   1.167   3.952 -1.6107 -1.3550  2.0601
   84WAT     H2  337   1.981   1.081   3.845  1.1782  2.6599  0.2168
   85WAT      O  338   3.209   0.763   0.010 -0.2808  0.4076  0.1943
   85WAT     H1  339   3.145   0.703  -0.029 -1.3167 -0.2602  2.6999
   85WAT     H2  340   3.190   0.848  -0.029 -1.0074 -0.2520 -0.9539
   86WAT      O  341   1.349   0.948   1.449 -0.1872 -0.0398  0.1055
   86WAT     H1  342   1.329   0.994   1.368 -1.4022 -3.4961 -1.7647
   86WAT     H2  343   1.429   0.898   1.429 -0.7900 -1.3325  0.8120
   87WAT      O  344   2.881   1.233   0.650  0.1531  0.3400 -0.0219
   87WAT     H1  345   2.810   1.191   0.601 -1.0048  1.4382  0.6391
   87WAT     H2  346   2.908   1.168   0.714 -1.0941  0.2964  0.4977
   88WAT      O  347   2.925   0.330   0.552  0.1313  0.1787 -0.1384
   88WAT     H1  348   2.962   0.286   0.475  0.2720 -1.6298  0.9069
   88WAT     H2  349   3.001   0.365   0.599  0.1673 -0.0135 -0.0545
   89WAT      O  350   1.971   0.692   0.885  0.1262 -0.5087 -0.9408
   89WAT     H1  351   2.044   0.750   0.903 -0.9817  0.3407  1.1522
   89WAT     H2  352   1.961   0.640   0.964  0.0348 -2.4410 -2.1484
   90WAT      O  353   2.650   2.566   3.206  0.3845 -0.2732 -0.3424
   90WAT     H1  354   2.580   2.568   3.272  0.3018 -1.0087 -0.3996
   90WAT     H2  355   2.692   2.480   3.218  1.5389  0.3082 -0.0492
   91WAT      O  356   2.592   0.512   1.670 -0.3519 -0.4213 -0.8160
   91WAT     H1  357   2.562   0.452   1.739 -1.6337  1.6306  0.4942
   91WAT     H2  358   2.555   0.475   1.589 -0.9267 -1.4973 -0.0908
   92WAT      O  359   0.537   3.100   0.705 -0.1051  0.1399  0.9126
   92WAT     H1  360   0.490   3.033   0.754 -0.1322 -0.1868  0.4430
   92WAT     H2  361   0.606   3.129   0.764  1.2298 -1.7810  0.3883
   93WAT      O  362   3.229   0.871   2.954 -0.0542  0.0583  0.3792
   93WAT     H1  363   3.316   0.839   2.930  0.0985  0.6934  0.0323
   93WAT     H2  364   3.168   0.805   2.922  0.2629  0.0028 -0.1131
   94WAT      O  365   1.133   1.082   0.807  0.3336  0.1255  0.5284
   94WAT     H1  366   1.087   1.144   0.749 -0.6996 -1.9939 -1.0805
   94WAT     H2  367   1.190   1.137   0.861 -1.4245  2.5655  0.0770
   95WAT      O  368   3.527   0.161   3.885  0.1268  0.0958  0.1737
   95WAT     H1  369   3.554   0.234   3.940  0.7193  0.8550 -1.0960
   95WAT     H2  370   3.559   0.083   3.931  0.6050  0.7087  0.8911
   96WAT      O  371   2.422   3.644   3.247 -0.0914  0.0497  0.5215
   96WAT     H1  372   2.377   3.613   3.326  0.3458 -0.5676  0.5354
   96WAT     H2  373   2.491   3.701   3.279 -0.7418  0.8564  0.5100
   97WAT      O  374   0.784   2.697   0.211  0.6599 -0.1298 -0.6315
   97WAT     H1  375   0.767   2.775   0.263  2.1514  0.3328 -0.8201
   97WAT     H2  376   0.774   2.726   0.120  2.8539  0.2885 -0.7734
   98WAT      O  377   3.303   3.049   1.265  0.6234 -0.2421 -0.3452
   98WAT     H1  378   3.272   2.980   1.325  2.0931  0.3487  1.1800
   98WAT     H2  379   3.339   3.001   1.191 -0.3749 -1.0316 -0.3473
   99WAT      O  380   3.523   2.040   3.590  0.0354  0.6054 -0.2818
   99WAT     H1  381   3.490   2.120   3.548  2.9094  1.4746 -1.1479
   99WAT     H2  382   3.618   2.053   3.594  0.2885 -1.1620  3.0516
  100WAT      O  383   2.164   2.816   1.876  0.3729 -0.0679  0.8148
  100WAT     H1  384   2.235   2.860   1.830  0.0049 -1.6760 -1.4251
  100WAT     H2  385   2.152   2.868   1.956  3.2166  0.9456  0.6914
  101WAT      O  386   1.929   1.376   2.849 -0.3766  0.0333  0.1149
  101WAT     H1  387   1.931   1.281   2.846 -1.2676 -0.0582  1.2871
  101WAT     H2  388   1.840   1.397   2.881 -0.0361  1.2207  0.3536
  102WAT      O  389   0.586   0.005   1.027 -0.7582  0.9669 -0.0138
  102WAT     H1  390   0.591   0.101   1.024 -0.2221  0.9588  0.3678
  102WAT     H2  391   0.582  -0.015   1.120  1.1179  0.5499  0.0188
  103WAT      O  392   0.941   3.836   2.569  0.2223 -0.1412 -0.3417
  103WAT     H1  393   0.850   3.842   2.598  0.1362 -0.9490 -0.4275
  103WAT     H2  394   0.938   3.780   2.491  0.5575  1.2966 -1.4493
  104WAT      O  395   2.590   3.573   1.331 -0.2233 -0.4837  0.5425
  104WAT     H1  396   2.676   3.613   1.325 -0.3770 -0.0048  1.3895
  104WAT     H2  397   2.556   3.601   1.416 -1.7040  0.2976 -0.2703
  105WAT      O  398   2.467   1.660   3.722 -0.1879 -0.0958  0.2184
  105WAT     H1  399   2.479   1.696   3.810  2.3533  0.5939 -0.3524
  105WAT     H2  400   2.498   1.570   3.728  0.7559  0.1922 -0.1192
  106WAT      O  401   2.438   1.642   0.331  0.0176  0.2936  0.0693
  106WAT     H1  402   2.447   1.725   0.378  0.3303  0.4786 -0.3139
  106WAT     H2  403   2.518   1.634   0.280  0.0821 -0.3475  0.2546
  107WAT      O  404   2.588   3.266   3.641  0.2014 -0.3502  0.2889
  107WAT     H1  405   2.584   3.301   3.729 -1.4292 -1.4691  0.7054
  107WAT     H2  406   2.632   3.334   3.590 -0.1415  0.9506  1.6518
  108WAT      O  407   2.231   0.555   0.438  0.0994 -0.3318 -0.3158
  108WAT     H1  408   2.243   0.634   0.490 -1.2893  0.1260 -0.6446
  108WAT     H2  409   2.160   0.508   0.482 -1.3592  0.2444 -1.9432
  109WAT      O  410   2.629   1.535   0.164  0.4933 -0.1454  0.5341
  109WAT     H1  411   2.713   1.493   0.183  0.3226 -0.7448 -0.0352
  109WAT     H2  412   2.564   1.465   0.172  0.2429 -0.0779 -0.7513
  110WAT      O  413   0.341   1.278   3.029 -0.8682 -0.2530  0.6150
  110WAT     H1  414   0.317   1.232   3.110 -1.4465 -1.8026 -0.3957
  110WAT     H2  415   0.389   1.212   2.978  0.3571  1.0069  0.1025
  111WAT      O  416   0.105   3.529   3.852 -0.1068 -0.2932 -0.4018
  111WAT     H1  417   0.064   3.486   3.776  2.4591 -1.1806 -1.3956
  111WAT     H2  418   0.081   3.475   3.927 -2.1197  0.2090 -0.6298
  112WAT      O  419   0.807   0.226   2.331 -0.5084  0.0248 -0.0750
  112WAT     H1  420   0.894   0.211   2.292 -0.5989 -0.6833 -0.0173
  112WAT     H2  421   0.756   0.267   2.261 -0.1623  0.3428 -0.1455
  113WAT      O  422   1.468   3.355   2.302  0.2724 -0.1453  0.0744
  113WAT     H1  423   1.487   3.264   2.323 -0.3393 -0.5240 -0.9520
  113WAT     H2  424   1.494   3.364   2.210 -0.3673  0.5085 -0.0512
  114WAT      O  425   3.325   0.224   1.271 -0.1901 -0.1234 -0.3064
  114WAT     H1  426   3.381   0.169   1.216  0.6502  1.5535 -1.2169
  114WAT     H2  427   3.385   0.289   1.308 -0.8314 -0.8107  2.1634
  115WAT      O  428   2.871   1.269   3.131  0.3702 -0.0004  0.0068
  115WAT     H1  429   2.952   1.319   3.133  0.1108  0.4426 -0.4598
  115WAT     H2  430   2.839   1.278   3.042 -1.8156  2.4852  0.8871
  116WAT      O  431   0.778   1.519   1.560  0.2274  0.1649 -0.1038
  116WAT     H1  432   0.849   1.580   1.542  0.1651  0.4106  0.4646
  116WAT     H2  433   0.819   1.450   1.613  0.4545 -0.6486 -1.3149
  117WAT      O  434   1.164   2.200   3.615 -0.8172 -0.2925 -0.1002
  117WAT     H1  435   1.142   2.120   3.661  1.8260  0.1874  2.2653
  117WAT     H2  436   1.142   2.270   3.677 -0.6954  0.6413 -1.0841
  118WAT      O  437   2.550   2.531   1.139  0.0534 -0.0460 -0.0624
  118WAT     H1  438   2.589   2.618   1.129  0.1223 -0.0291  0.3361
  118WAT     H2  439   2.458   2.547   1.160  0.2536 -0.0420  0.8796
  119WAT      O  440   1.554   1.459   0.023 -0.2403  0.0694  0.1949
  119WAT     H1  441   1.527   1.546  -0.008 -0.8678 -0.2135 -0.0830
  119WAT     H2  442   1.472   1.411   0.031  0.0642 -0.3545  0.7996
  120WAT      O  443   0.770   3.851   1.378 -0.0223 -0.3546 -0.1824
  120WAT     H1  444   0.844   3.873   1.322  0.1671 -2.1573 -0.7085
  120WAT     H2  445   0.703   3.916   1.357  1.4733  1.4854  0.5146
  121WAT      O  446   2.992   1.057   2.668 -0.6424  0.2266  0.4127
  121WAT     H1  447   2.944   1.123   2.618 -2.0392 -0.3197  0.9992
  121WAT     H2  448   2.927   0.991   2.690  0.5346 -0.9033  0.6316
  122WAT      O  449   3.613   1.348   2.557 -0.9690  0.2377  0.3854
  122WAT     H1  450   3.580   1.315   2.473  0.5655 -1.3351  0.3412
  122WAT     H2  451   3.572   1.291   2.622 -2.1771  1.4709  0.7652
  123WAT      O  452   0.816   0.167   1.359  0.6680  0.9326 -0.0977
  123WAT     H1  453   0.884   0.200   1.300  0.4557 -1.0409 -1.5303
  123WAT     H2  454   0.865   0.134   1.434  1.2585  0.1574 -0.8058
  124WAT      O  455   1.822   0.644   1.186 -0.1366 -0.2669 -0.0759
  124WAT     H1  456   1.747   0.590   1.213  0.3487 -1.8155 -1.6755
  124WAT     H2  457   1.784   0.708   1.125 -0.4942  0.3688  0.7964
  125WAT      O  458   0.661   1.420   0.054  0.2613  0.5299 -0.3239
  125WAT     H1  459   0.589   1.364   0.085 -0.2327  0.7878 -0.9874
  125WAT     H2  460   0.703   1.451   0.135  1.0802 -1.4376  0.0666
  126WAT      O  461   1.754   0.798   2.337 -0.3487  0.1249  0.4396
  126WAT     H1  462   1.704   0.832   2.411 -0.2421  0.1511  0.5013
  126WAT     H2  463   1.836   0.768   2.377  0.1814  1.1762  0.1764
  127WAT      O  464   0.860   1.982   1.918  0.5098  0.4447 -0.1812
  127WAT     H1  465   0.898   1.908   1.871 -1.4777 -0.3919 -0.5755
  127WAT     H2  466   0.834   2.043   1.848 -1.8090 -0.4841 -0.2073
  128WAT      O  467   2.304   1.724   2.138 -0.1669 -0.2653 -0.1106
  128WAT     H1  468   2.327   1.667   2.065 -0.6464 -0.3782 -0.1807
  128WAT     H2  469   2.385   1.770   2.160  0.0902 -0.5732 -0.4090
  129WAT      O  470   1.819   2.332   1.788 -0.3849  0.2803 -1.1141
  129WAT     H1  471   1.852   2.416   1.756 -1.6459  1.3611  0.3066
  129WAT     H2  472   1.725   2.334   1.770 -0.3632 -1.0769 -1.5403
  130WAT      O  473   1.589   2.686   3.264  0.5372 -0.1531 -0.1870
  130WAT     H1  474   1.683   2.696   3.252  0.3028  2.6742 -0.3532
  130WAT     H2  475   1.551   2.707   3.178 -0.2674 -1.3587 -0.1523
  131WAT      O  476   2.446   2.336   0.775 -0.0431  0.0096 -0.2749
  131WAT     H1  477   2.521   2.284   0.805  0.0395 -0.2344 -0.9060
  131WAT     H2  478   2.429   2.306   0.686  0.3890  1.4901 -0.8808
  132WAT      O  479   2.928   1.552   1.826 -0.1734  0.1240 -0.4710
  132WAT     H1  480   2.843   1.514   1.805  0.3130 -0.0442 -2.3925
  132WAT     H2  481   2.948   1.607   1.750  0.3165  2.1640  1.0876
  133WAT      O  482   1.930   3.771   0.506 -0.2161 -0.1952 -0.4877
  133WAT     H1  483   2.014   3.806   0.535 -0.4172  0.1879 -0.3633
  133WAT     H2  484   1.946   3.678   0.494 -0.3036 -0.5015  1.4875
  134WAT      O  485   3.338   2.067   2.092  0.4675  0.0688 -0.5644
  134WAT     H1  486   3.405   2.135   2.082 -0.3567  0.9230 -0.4213
  134WAT     H2  487   3.281   2.078   2.016 -1.3616  1.5196  0.9142
  135WAT      O  488   3.273   1.818   1.388 -0.6033 -0.4871  0.4105
  135WAT     H1  489   3.326   1.740   1.369 -1.7093 -1.1096 -0.2279
  135WAT     H2  490   3.243   1.848   1.303  0.0105  0.7978  0.6392
  136WAT      O  491   2.641   1.436   2.119 -0.2659 -0.2190  0.5763
  136WAT     H1  492   2.659   1.452   2.212  0.7131 -1.4243  0.6262
  136WAT     H2  493   2.563   1.381   2.118 -1.5329  1.4889  0.5547
  137WAT      O  494   1.606   2.491   2.033  0.1023  0.0998  0.0520
  137WAT     H1  495   1.666   2.454   1.968  0.4264  0.1973  0.2885
  137WAT     H2  496   1.658   2.559   2.077  0.3320 -0.8433  1.3038
  138WAT      O  497   3.085   0.595   0.284 -0.4349 -0.1554  0.0350
  138WAT     H1  498   3.149   0.618   0.351 -1.6030 -0.2568  1.2258
  138WAT     H2  499   3.101   0.657   0.213  1.3368 -0.5479  0.0370
  139WAT      O  500   2.518   2.537   3.432  0.4262 -0.7297 -0.0445
  139WAT     H1  501   2.596   2.501   3.475  0.1626 -1.2464  0.0175
  139WAT     H2  502   2.508   2.625   3.469  2.0152  0.0551 -1.4004
  140WAT      O  503   3.097   3.314   2.995 -0.8455 -0.2962 -0.2117
  140WAT     H1  504   3.153   3.264   2.935 -0.3884  0.1397 -0.1570
  140WAT     H2  505   3.154   3.336   3.068 -1.3966 -0.8062  0.3859
  141WAT      O  506   2.822   0.648   1.603  0.2868  0.2554  0.4297
  141WAT     H1  507   2.738   0.608   1.623  0.4909  0.1716  1.1487
  141WAT     H2  508   2.838   0.626   1.511 -1.1335  1.4809 -0.1542
  142WAT      O  509   0.679   3.184   0.935  0.3845  0.5269 -0.1024
  142WAT     H1  510   0.679   3.270   0.893  0.4122  1.5774  1.9372
  142WAT     H2  511   0.667   3.202   1.028  1.1954 -1.6334  0.4927
  143WAT      O  512   0.812   3.187   1.507 -0.2180 -0.0581 -0.1689
  143WAT     H1  513   0.896   3.196   1.464  0.6854 -2.4076  0.9298
  143WAT     H2  514   0.805   3.093   1.528 -1.2960  0.6331  3.2461
  144WAT      O  515   1.712   3.861   0.671 -0.2434 -0.3971  0.1167
  144WAT     H1  516   1.723   3.811   0.752  1.6267  1.4266  1.0790
  144WAT     H2  517   1.782   3.831   0.614  0.1595  0.2789  0.2519
  145WAT      O  518   1.035   4.075   3.557  0.4097 -0.1274  0.6028
  145WAT     H1  519   1.085   4.083   3.639  1.8280 -0.9295 -0.1451
  145WAT     H2  520   1.044   4.161   3.516  1.1812 -0.2474  0.4932
  146WAT      O  521   2.836   3.654   1.413 -0.2101  0.2210 -0.2145
  146WAT     H1  522   2.837   3.750   1.413  0.2291  0.3361 -3.2836
  146WAT     H2  523   2.920   3.630   1.375 -0.6113 -1.3700 -0.1520
  147WAT      O  524   3.056   1.794   2.022 -0.2149 -0.4438 -0.2340
  147WAT     H1  525   3.058   1.826   1.932 -0.8064  2.3792  0.6551
  147WAT     H2  526   2.969   1.757   2.032 -0.0555 -1.0196 -0.8619
  148WAT      O  527   2.533   2.106   1.799  0.2523 -0.2358  0.2375
  148WAT     H1  528   2.460   2.079   1.855 -1.6085 -0.6752 -2.2330
  148WAT     H2  529   2.503   2.188   1.760  1.3223 -0.1629 -0.4526
  149WAT      O  530   0.133   2.035   1.292 -0.2286  0.0778 -0.1553
  149WAT     H1  531   0.073   2.079   1.233 -1.5679 -1.2276  0.1632
  149WAT     H2  532   0.152   2.100   1.360  0.6195  1.2837 -1.4871
  150WAT      O  533   0.858   2.558   0.607  0.2216  0.4479 -0.4230
  150WAT     H1  534   0.913   2.599   0.540 -0.0429 -0.5233 -1.2620
  150WAT     H2  535   0.917   2.502   0.656 -0.2699 -2.1956 -2.6155
  151WAT      O  536   1.964   2.853   3.507  0.3088  0.2664 -0.5589
  151WAT     H1  537   1.918   2.810   3.434  0.0506 -0.8840  0.2584
  151WAT     H2  538   2.025   2.913   3.464 -0.0862 -0.1241 -1.7190
  152WAT      O  539   0.568   3.402   2.198  0.0375  0.2587 -0.0027
  152WAT     H1  540   0.632   3.446   2.143 -0.9763  2.0594  0.1561
  152WAT     H2  541   0.596   3.421   2.288  1.3785 -2.2026  0.1785
  153WAT      O  542   0.826   2.858   0.855  0.1085  0.0336 -0.4865
  153WAT     H1  543   0.837   2.768   0.883  2.1613  0.2068 -0.5675
  153WAT     H2  544   0.781   2.852   0.771  1.6546 -1.0647 -1.2834
  154WAT      O  545   0.273   1.601   0.147  0.0969  0.1340 -0.2651
  154WAT     H1  546   0.321   1.633   0.071  1.5554 -0.7719  0.2423
  154WAT     H2  547   0.181   1.606   0.120  0.5664 -0.2832 -2.1431
  155WAT      O  548   1.507   0.990   2.012  0.2124 -0.2927  0.2781
  155WAT     H1  549   1.547   0.980   1.926  0.3491 -3.2164  0.5564
  155WAT     H2  550   1.581   0.986   2.073 -0.0439 -0.1662  0.5998
  156WAT      O  551   2.082   1.310   1.543  0.1647 -0.0046 -0.1794
  156WAT     H1  552   2.150   1.367   1.509  0.3060  0.7405  1.2679
  156WAT     H2  553   2.023   1.296   1.469 -0.9643  3.6325 -0.1354
  157WAT      O  554   1.796   3.235   2.654  0.2922 -0.5336 -0.3432
  157WAT     H1  555   1.731   3.250   2.723  1.9067 -1.9284  1.5853
  157WAT     H2  556   1.761   3.161   2.605  0.3382 -1.2248  0.6345
  158WAT      O  557   1.271   0.194   0.057 -0.2221 -0.2886  0.1251
  158WAT     H1  558   1.309   0.249  -0.012  1.0385  0.2477  1.2174
  158WAT     H2  559   1.292   0.104   0.030  0.8855 -0.0488  0.1559
  159WAT      O  560   2.228   2.017   1.926 -0.4276  0.0060 -0.0444
  159WAT     H1  561   2.295   2.055   1.984 -1.1805 -0.2160  0.9994
  159WAT     H2  562   2.200   2.090   1.871 -2.1080  1.1571  2.1535
  160WAT      O  563   2.259   3.968   0.622  0.5527  0.7641 -0.1917
  160WAT     H1  564   2.238   3.979   0.529  0.3378 -1.7863 -0.5254
  160WAT     H2  565   2.218   3.884   0.645 -1.3572  2.3651  2.8162
  161WAT      O  566   1.149   0.708   0.776  0.2865  0.1958  0.7090
  161WAT     H1  567   1.114   0.671   0.694  0.7974 -0.2074  0.6614
  161WAT     H2  568   1.235   0.741   0.751  1.1061 -1.3158  1.3983
  162WAT      O  569   0.526   2.679   3.706  0.3463  0.2055  0.3755
  162WAT     H1  570   0.552   2.589   3.682  0.1904  0.7631 -2.2480
  162WAT     H2  571   0.477   2.669   3.787 -1.7362 -2.4549 -1.0277
  163WAT      O  572   1.450   2.245   3.370  0.1605  0.1906  0.6960
  163WAT     H1  573   1.478   2.331   3.402 -1.3318  0.7999  0.4802
  163WAT     H2  574   1.355   2.254   3.359  0.2775 -0.7364 -1.5983
  164WAT      O  575   2.637   2.081   3.404 -0.0051 -0.1184  0.2545
  164WAT     H1  576   2.596   1.996   3.387  0.6631 -0.8504  2.0094
  164WAT     H2  577   2.731   2.061   3.407  0.3262  1.0508 -1.1362
  165WAT      O  578   2.066   1.715   3.276  0.3096 -0.4307  0.0283
  165WAT     H1  579   1.974   1.700   3.298  1.0478 -2.1022  2.3501
  165WAT     H2  580   2.089   1.642   3.218  0.4810 -0.7491  0.4907
  166WAT      O  581   3.340   0.624   1.637 -0.3033  0.8159  0.0373
  166WAT     H1  582   3.363   0.543   1.683 -1.8250  0.5286  0.3560
  166WAT     H2  583   3.405   0.687   1.666  0.0601  0.0675  0.9130
  167WAT      O  584   2.926   2.601   2.869  0.2674 -0.1958  0.1476
  167WAT     H1  585   2.906   2.522   2.919  1.9685 -0.0349  1.1741
  167WAT     H2  586   2.883   2.671   2.917 -1.3449 -0.4600 -0.8305
  168WAT      O  587   2.644   1.001   0.034  0.3162  0.3052  0.0028
  168WAT     H1  588   2.562   1.005   0.083  0.3535 -1.7342  0.3177
  168WAT     H2  589   2.699   0.940   0.084  1.2977  0.1360 -1.2325
  169WAT      O  590   0.625   1.633   0.489 -0.1900  0.0418 -0.4281
  169WAT     H1  591   0.632   1.724   0.517  0.4109 -0.7193  2.1862
  169WAT     H2  592   0.533   1.611   0.501  0.1819 -0.4870  1.9422
  170WAT      O  593   0.683   2.810   3.939 -0.2079 -0.3390  0.1776
  170WAT     H1  594   0.674   2.827   3.845 -2.4025 -0.0503  0.3788
  170WAT     H2  595   0.598   2.836   3.976  1.0155  0.7310  2.4432
  171WAT      O  596   0.023   1.872   3.340  0.0464 -0.6164 -0.5509
  171WAT     H1  597   0.096   1.873   3.279  0.3379  3.0170 -0.3141
  171WAT     H2  598  -0.047   1.919   3.295 -0.5983 -0.1360  0.9012
  172WAT      O  599   1.697   3.848   3.892  0.4763 -0.1804 -0.4954
  172WAT     H1  600   1.685   3.905   3.968  0.2215 -1.5675  0.5527
  172WAT     H2  601   1.748   3.774   3.925  1.2978 -0.3022 -1.9526
  173WAT      O  602   1.603   1.450   2.170 -0.0847 -0.1830  0.4657
  173WAT     H1  603   1.612   1.505   2.247 -1.8292  0.6198  0.1320
  173WAT     H2  604   1.556   1.373   2.200  0.3350 -0.4469  0.4550
  174WAT      O  605   1.724   1.098   3.462  0.2659 -0.2766 -0.1825
  174WAT     H1  606   1.645   1.056   3.494  0.3822  0.0804  0.6047
  174WAT     H2  607   1.704   1.192   3.465  0.2138 -0.2357 -1.3552
  175WAT      O  608   2.704   0.818   3.202  0.1732 -0.4934 -0.0122
  175WAT     H1  609   2.685   0.814   3.296 -0.9546  0.3879 -0.1773
  175WAT     H2  610   2.617   0.827   3.161  0.7254  0.2294 -1.0651
  176WAT      O  611   0.298   0.148   1.901 -0.7226 -0.2638 -0.2012
  176WAT     H1  612   0.273   0.232   1.939  0.9759  1.2501 -2.1704
  176WAT     H2  613   0.219   0.116   1.858 -1.4487  0.2104  0.7534
  177WAT      O  614   3.034   0.632   0.885  0.1502 -0.0475  0.0083
  177WAT     H1  615   2.941   0.650   0.868 -0.0391 -1.4086 -0.5031
  177WAT     H2  616   3.045   0.647   0.978 -0.4758  0.5780 -0.0094
  178WAT      O  617   1.845   2.118   3.019  0.6127 -0.4334 -0.1965
  178WAT     H1  618   1.782   2.047   3.030 -0.4597  0.2188 -1.8238
  178WAT     H2  619   1.799   2.197   3.049  1.5270 -0.2815  0.8885
  179WAT      O  620   0.683   3.146   1.884  0.2526 -0.3972  0.4074
  179WAT     H1  621   0.625   3.119   1.813  1.8774 -2.1718 -0.3389
  179WAT     H2  622   0.634   3.126   1.964  0.2491 -3.1046 -0.1662
  180WAT      O  623   1.761   0.641   3.005  0.4232 -0.2085 -0.0687
  180WAT     H1  624   1.695   0.702   2.971  1.2699  0.9119  0.2409
  180WAT     H2  625   1.715   0.594   3.075  0.3644  1.7327  1.3004
  181WAT      O  626   1.456   0.394   0.566 -0.6194 -0.1916 -0.1624
  181WAT     H1  627   1.493   0.311   0.599  0.0018 -0.0116 -0.3846
  181WAT     H2  628   1.507   0.412   0.487 -2.4601 -0.9137 -1.5869
  182WAT      O  629   0.864   1.825   3.772  0.0553  0.0842  0.2551
  182WAT     H1  630   0.852   1.849   3.681  0.4069  0.4035  0.2952
  182WAT     H2  631   0.784   1.855   3.815 -1.3221 -2.3270 -0.3742
  183WAT      O  632   2.595   2.669   2.320 -0.3262  0.3316  1.0000
  183WAT     H1  633   2.652   2.702   2.250 -0.7745  0.4270  0.6755
  183WAT     H2  634   2.550   2.594   2.281 -0.2453  0.1076  1.3342
  184WAT      O  635   2.901   1.442   0.498  0.3097  0.0430 -0.8328
  184WAT     H1  636   2.987   1.478   0.521  0.2191  0.1010 -0.5832
  184WAT     H2  637   2.892   1.365   0.553 -0.2742  0.6634 -0.0393
  185WAT      O  638   0.732   0.031   0.053  0.8769 -0.1661 -0.3436
  185WAT     H1  639   0.779   0.026   0.136  0.1173  0.3010  0.1173
  185WAT     H2  640   0.696  -0.057   0.041 -0.7741  0.3051  0.8773
  186WAT      O  641   2.395   3.229   1.656  0.0490  0.1908 -0.1856
  186WAT     H1  642   2.398   3.183   1.739  1.2483  1.0593  0.2960
  186WAT     H2  643   2.314   3.279   1.659 -0.7673 -1.0873 -0.2956
  187WAT      O  644   1.936   3.638   3.859 -0.1286  0.2295 -0.0748
  187WAT     H1  645   1.949   3.672   3.770 -0.2404  0.5095  0.0151
  187WAT     H2  646   2.021   3.651   3.902  0.4411 -1.4036 -0.6269
  188WAT      O  647   0.255   2.485   3.218  0.3299  0.2280 -0.0621
  188WAT     H1  648   0.251   2.414   3.282 -0.8901  0.9784  0.7483
  188WAT     H2  649   0.173   2.478   3.169  1.1953 -0.2666 -1.5119
  189WAT      O  650   1.333   3.515   3.043 -0.3962  0.3501  0.1913
  189WAT     H1  651   1.249   3.548   3.011 -1.3285 -0.9703  1.1797
  189WAT     H2  652   1.338   3.426   3.009 -0.2332 -0.1881  1.5747
  190WAT      O  653   0.521   0.157   2.446 -0.3095 -0.0671 -0.2513
  190WAT     H1  654   0.564   0.080   2.408  0.1236 -0.7645  1.5604
  190WAT     H2  655   0.593   0.212   2.476 -0.6283  0.9226 -1.2403
  191WAT      O  656   2.288   3.169   3.210  0.2101 -0.0152 -0.1942
  191WAT     H1  657   2.377   3.204   3.215  0.5344 -0.8508 -0.0043
  191WAT     H2  658   2.233   3.242   3.237  0.8032  0.6327 -0.6803
  192WAT      O  659   3.323   2.188   2.783  0.4122  0.6882  0.5712
  192WAT     H1  660   3.241   2.151   2.751  1.1638  0.1595 -0.7903
  192WAT     H2  661   3.307   2.203   2.876 -0.0250 -2.8240  1.1961
  193WAT      O  662   2.307   0.459   1.369  0.7223 -0.0764  0.5346
  193WAT     H1  663   2.401   0.452   1.389  0.6856 -0.0749  0.7077
  193WAT     H2  664   2.275   0.526   1.430  0.8068  0.6553 -0.2115
  194WAT      O  665   1.983   0.548   0.586  0.6964  0.2193  0.3189
  194WAT     H1  666   1.996   0.643   0.589 -0.1083  0.3134  1.3407
  194WAT     H2  667   2.005   0.518   0.674  2.4215 -0.7794 -0.3983
  195WAT      O  668   2.818   1.248   1.999  0.2686  0.0562  0.8648
  195WAT     H1  669   2.901   1.276   2.037 -0.0046  1.8572  0.2468
  195WAT     H2  670   2.753   1.308   2.036 -0.0157  1.9285 -2.2540
  196WAT      O  671   0.016   0.770   0.697  0.2507  0.1075 -0.1248
  196WAT     H1  672  -0.049   0.704   0.721  0.1053  0.3436  0.1369
  196WAT     H2  673   0.009   0.776   0.602  0.2116 -0.1989 -0.1424
  197WAT      O  674   3.331   1.488   3.261 -0.1315  0.1934  0.1717
  197WAT     H1  675   3.364   1.558   3.205 -2.1314  0.6966 -0.4543
  197WAT     H2  676   3.369   1.507   3.348  2.3363 -0.1353 -0.7467
  198WAT      O  677   0.503   1.168   0.978 -0.6749 -0.6660  0.0201
  198WAT     H1  678   0.486   1.075   0.993 -2.6120 -0.5088 -0.8328
  198WAT     H2  679   0.540   1.171   0.889  1.4973 -0.7592  0.8574
  199WAT      O  680   2.754   3.224   2.951 -0.1765 -0.0920  0.0642
  199WAT     H1  681   2.770   3.286   2.879  1.2127  0.3215  0.6795
  199WAT     H2  682   2.659   3.219   2.958 -0.3283  0.5353 -1.2226
  200WAT      O  683   2.544   0.992   0.333  0.6035  0.2716  0.1087
  200WAT     H1  684   2.477   1.052   0.300  1.2623  0.5697 -0.7330
  200WAT     H2  685   2.519   0.975   0.424 -1.1979 -0.4688 -0.4995
  201WAT      O  686   3.319   2.716   3.647  0.1400  1.0357 -0.2943
  201WAT     H1  687   3.311   2.622   3.663 -0.2205  1.5389  3.3624
  201WAT     H2  688   3.411   2.729   3.624  0.2973 -0.1331 -0.3739
  202WAT      O  689   0.368   3.878   1.827 -0.1542 -0.1055 -0.3174
  202WAT     H1  690   0.292   3.890   1.884  0.6904  0.0978  0.8052
  202WAT     H2  691   0.415   3.804   1.864 -0.1731 -0.7012 -1.4387
  203WAT      O  692   0.222   1.383   1.260  0.7695 -0.1598 -0.3628
  203WAT     H1  693   0.196   1.435   1.337  0.9043 -1.1319  0.3556
  203WAT     H2  694   0.314   1.403   1.248  1.5188 -2.0870  1.4764
  204WAT      O  695   2.313   3.737   2.968  0.5434 -0.2212 -0.0965
  204WAT     H1  696   2.257   3.709   3.041  1.0106 -0.1733  0.2808
  204WAT     H2  697   2.402   3.722   2.998  0.8219  1.5316  0.0676
  205WAT      O  698   0.693   2.943   1.568 -0.6291 -0.0778 -0.3137
  205WAT     H1  699   0.719   2.859   1.604  1.2049  0.4114 -0.4172
  205WAT     H2  700   0.672   2.924   1.476 -0.8131 -0.5078 -0.1869
  206WAT      O  701   2.108   1.257   0.942  0.3808 -0.0894 -0.3403
  206WAT     H1  702   2.140   1.297   1.022  0.1505 -0.5540 -0.0166
  206WAT     H2  703   2.021   1.224   0.965 -0.7681  1.9284 -1.4167
  207WAT      O  704   1.818   2.866   3.020  0.0032  0.5874 -0.1012
  207WAT     H1  705   1.902   2.904   2.995  0.8468 -1.5257 -0.7016
  207WAT     H2  706   1.784   2.827   2.939 -2.7865  3.4246 -0.4788
  208WAT      O  707   0.071   2.214   1.799  0.0389 -0.2438 -0.4840
  208WAT     H1  708   0.134   2.164   1.852 -0.0547 -1.4828 -1.4989
  208WAT     H2  709  -0.015   2.182   1.829 -0.0111 -1.1061 -1.4813
  209WAT      O  710   3.053   1.066   1.512  0.0579 -0.0684 -0.2864
  209WAT     H1  711   3.110   1.134   1.476  1.3607 -1.0656 -0.1745
  209WAT     H2  712   3.002   1.110   1.579 -0.6913  1.2811 -1.6652
  210WAT      O  713   2.248   0.062   0.801 -0.0944 -0.3617  0.4907
  210WAT     H1  714   2.269   0.133   0.741  0.1200 -1.1556 -0.3814
  210WAT     H2  715   2.253  -0.018   0.748  2.8168 -1.4082  2.0909
  211WAT      O  716   1.725   1.964   2.743 -0.3451  0.4056  0.4385
  211WAT     H1  717   1.813   1.971   2.779 -0.8271  0.9987  1.5243
  211WAT     H2  718   1.667   1.967   2.819 -1.2503 -1.7441 -0.0788
  212WAT      O  719   1.905   0.751   1.414  0.3270 -0.0472  0.4553
  212WAT     H1  720   1.878   0.684   1.476  0.5991 -0.5743  0.0057
  212WAT     H2  721   1.890   0.712   1.328  3.0721 -0.6308  0.1443
  213WAT      O  722   1.962   2.556   0.946 -0.4182 -0.0869  0.2892
  213WAT     H1  723   2.020   2.617   0.901 -0.1193  0.0012  0.7981
  213WAT     H2  724   1.904   2.524   0.876 -0.1432  0.2622 -0.1081
  214WAT      O  725   2.142   1.370   2.214 -0.2521  0.0383  0.2228
  214WAT     H1  726   2.125   1.291   2.161  0.6261  0.4317 -0.6755
  214WAT     H2  727   2.058   1.416   2.214 -0.2328  0.1135 -0.9953
  215WAT      O  728   1.181   0.466   3.450  0.1847  0.1610 -0.7189
  215WAT     H1  729   1.117   0.403   3.484 -0.3804  1.5334  0.9041
  215WAT     H2  730   1.183   0.449   3.356 -2.6850  0.1498 -0.8565
  216WAT      O  731   3.191   3.101   3.518  0.3909  0.1565  0.3935
  216WAT     H1  732   3.146   3.058   3.446  0.6500 -1.6393  1.2374
  216WAT     H2  733   3.274   3.053   3.527 -0.1168 -0.4465  2.5723
  217WAT      O  734   1.411   0.844   0.869  0.4711 -0.1937  0.1125
  217WAT     H1  735   1.380   0.909   0.932 -0.2046 -0.7859  0.4126
  217WAT     H2  736   1.474   0.791   0.918 -1.0001 -1.4596  0.7131
  218WAT      O  737   1.846   0.988   3.248 -0.3171 -0.1271 -0.0886
  218WAT     H1  738   1.767   0.936   3.236 -1.4429  1.6697 -0.8313
  218WAT     H2  739   1.835   1.031   3.333 -0.6066  0.8328 -0.5911
  219WAT      O  740   1.672   3.695   3.252  0.2749  0.0518  0.2275
  219WAT     H1  741   1.699   3.783   3.280  1.4871 -0.6698  1.4137
  219WAT     H2  742   1.754   3.647   3.241 -0.2696 -0.4697 -2.1627
  220WAT      O  743   1.668   0.903   2.871 -0.4951  0.1889 -0.2620
  220WAT     H1  744   1.742   0.959   2.894  0.2333 -1.5260  2.0166
  220WAT     H2  745   1.591   0.956   2.891  0.1755  0.6520  1.2944
  221WAT      O  746   0.864   2.515   3.965 -0.3944 -0.4725  0.6077
  221WAT     H1  747   0.779   2.503   4.008 -0.6243 -1.6165 -0.1112
  221WAT     H2  748   0.865   2.448   3.897  0.8446 -0.0740  0.2185
  222WAT      O  749   2.241   0.704   3.238 -0.3620  0.8109  0.5388
  222WAT     H1  750   2.182   0.758   3.187 -2.0787 -0.3488  1.2004
  222WAT     H2  751   2.269   0.635   3.178  1.7087  2.2604 -0.2602
  223WAT      O  752   0.131   2.410   1.993 -0.2746 -0.1004 -0.2460
  223WAT     H1  753   0.218   2.383   2.021 -1.0433 -2.6686 -0.0701
  223WAT     H2  754   0.130   2.393   1.898 -0.4232  0.3934 -0.3352
  224WAT      O  755   1.962   2.894   1.658  0.0799 -0.6447  0.0986
  224WAT     H1  756   1.988   2.986   1.650  1.5614 -0.9316  1.1779
  224WAT     H2  757   2.001   2.865   1.741  1.5565 -2.8523 -1.2464
  225WAT      O  758   0.090   1.778   2.542  0.1865  0.5748  0.0019
  225WAT     H1  759   0.045   1.787   2.457  1.2075 -1.5467 -0.8475
  225WAT     H2  760   0.028   1.729   2.596 -0.0111  0.9336  0.1025
  226WAT      O  761   2.387   1.123   0.786  0.4386  0.6982 -0.2882
  226WAT     H1  762   2.429   1.209   0.787  1.3312  0.2920  1.6589
  226WAT     H2  763   2.360   1.109   0.877  1.0055 -1.4112 -0.4040
  227WAT      O  764   2.639   1.870   0.564 -0.2286  0.1429 -0.1813
  227WAT     H1  765   2.705   1.811   0.530 -0.8788 -0.6206 -0.1396
  227WAT     H2  766   2.623   1.933   0.493  0.3569  0.1878 -0.2755
  228WAT      O  767   0.378   0.681   0.804 -0.1445  0.2704 -0.4032
  228WAT     H1  768   0.391   0.629   0.724  0.6992  0.8866 -0.6801
  228WAT     H2  769   0.390   0.618   0.875 -1.7207 -0.4623 -0.7501
  229WAT      O  770   3.307   3.143   3.845 -0.0746  0.9002 -0.1300
  229WAT     H1  771   3.305   3.126   3.751  0.1598 -2.0788  0.3260
  229WAT     H2  772   3.217   3.167   3.866 -0.8079 -1.1283 -0.7362
  230WAT      O  773   0.477   2.047   2.708 -0.3305  0.1963 -0.1632
  230WAT     H1  774   0.409   2.083   2.651 -1.4387  2.4104  2.3844
  230WAT     H2  775   0.435   2.036   2.793  1.9731 -0.3198  0.9953
  231WAT      O  776   0.776   0.747   0.781  0.5206 -0.0377 -0.1690
  231WAT     H1  777   0.751   0.655   0.775 -0.4427  0.3003 -2.1077
  231WAT     H2  778   0.863   0.752   0.742  1.2782 -0.3333  1.4014
  232WAT      O  779   3.345   0.516   2.839  0.1756  0.0968 -0.5660
  232WAT     H1  780   3.440   0.526   2.842  0.1630  0.4856 -1.1207
  232WAT     H2  781   3.328   0.475   2.754 -0.1643  0.2157 -0.5586
  233WAT      O  782   3.216   3.928   0.904  0.2560 -0.1094  0.2806
  233WAT     H1  783   3.152   3.891   0.964  0.8877 -0.8777  0.4994
  233WAT     H2  784   3.164   3.972   0.837 -0.4492  1.0664  1.5747
  234WAT      O  785   0.731   2.209   2.738 -0.0347  0.2498 -0.0344
  234WAT     H1  786   0.660   2.146   2.728  1.4878 -1.5504 -0.0386
  234WAT     H2  787   0.697   2.274   2.800 -1.3137 -1.1197  0.7512
  235WAT      O  788   2.341   1.268   3.774  0.0217 -0.2494 -0.3997
  235WAT     H1  789   2.334   1.185   3.822  2.6596 -1.0701 -1.2839
  235WAT     H2  790   2.384   1.328   3.835 -0.6716  0.0868 -0.2293
  236WAT      O  791   0.392   3.610   1.677 -0.3141 -0.5593  0.1259
  236WAT     H1  792   0.336   3.637   1.751  0.7159 -2.0728  1.5458
  236WAT     H2  793   0.423   3.523   1.702  2.8141  0.2642 -0.5052
  237WAT      O  794   1.973   1.893   0.163 -0.8004 -0.3785 -1.0244
  237WAT     H1  795   1.964   1.826   0.231 -1.0839  0.8861  0.2329
  237WAT     H2  796   1.982   1.975   0.212 -1.7603  0.6657 -2.5307
  238WAT      O  797   0.401   1.151   1.922 -0.6162 -0.5088  0.1599
  238WAT     H1  798   0.414   1.182   1.832  1.6323 -1.1430  0.1947
  238WAT     H2  799   0.470   1.194   1.972 -1.7285 -0.3053  1.5638
  239WAT      O  800   1.774   2.819   0.135  0.3390  0.2564  0.4531
  239WAT     H1  801   1.762   2.801   0.228  1.8388 -1.4642  0.3563
  239WAT     H2  802   1.859   2.862   0.129 -0.2916  1.5081 -0.0398
  240WAT      O  803   0.599   0.990   3.878  0.6697 -0.6864  0.8395
  240WAT     H1  804   0.611   0.919   3.814  1.1836  1.0248 -1.0876
  240WAT     H2  805   0.567   1.064   3.825  2.4344  1.2347  2.3101
  241WAT      O  806   0.111   3.138   0.155  0.1610 -0.2303  0.3825
  241WAT     H1  807   0.107   3.234   0.154 -1.6267 -0.1330  3.2848
  241WAT     H2  808   0.020   3.111   0.145  0.5124 -1.5671  0.6801
  242WAT      O  809   3.278   0.873   3.616 -0.1311 -0.4133 -0.3718
  242WAT     H1  810   3.348   0.813   3.590  0.1602  0.7920 -2.6786
  242WAT     H2  811   3.197   0.828   3.589  0.1085  0.3138 -2.5140
  243WAT      O  812   1.989   3.966   3.698  0.1857 -0.0630  0.1615
  243WAT     H1  813   2.063   4.016   3.664  1.7406 -1.7067  0.9452
  243WAT     H2  814   1.963   3.910   3.624  0.8667 -0.6880  0.3794
  244WAT      O  815   2.181   1.396   0.722 -0.1217 -0.2087 -0.0574
  244WAT     H1  816   2.223   1.474   0.759 -2.1148  1.2570 -0.6953
  244WAT     H2  817   2.154   1.345   0.799  1.9021 -0.7483  0.3610
  245WAT      O  818   0.046   0.365   0.601 -0.1119  0.1537  0.0634
  245WAT     H1  819   0.004   0.282   0.624  1.5568 -0.6794  0.2839
  245WAT     H2  820  -0.007   0.400   0.530  0.2254 -2.0832 -1.4080
  246WAT      O  821   1.493   3.204   1.620  0.0509  0.3613  0.1277
  246WAT     H1  822   1.559   3.144   1.586 -1.5283  0.1492 -2.9191
  246WAT     H2  823   1.437   3.148   1.674  0.2543 -0.2875 -0.3148
  247WAT      O  824   0.129   2.807   0.931 -0.1120  0.4636 -0.2544
  247WAT     H1  825   0.077   2.771   0.860  1.5526 -0.5175 -1.0427
  247WAT     H2  826   0.156   2.731   0.983  2.6339  0.5463 -1.3726
  248WAT      O  827   1.554   0.682   1.018 -0.2211 -0.0802 -0.8608
  248WAT     H1  828   1.529   0.695   1.109  0.7561 -1.9747 -0.2839
  248WAT     H2  829   1.545   0.588   1.003  2.6858 -0.3134 -1.7389
  249WAT      O  830   2.958   3.933   1.676 -0.0186 -0.1295 -0.2646
  249WAT     H1  831   2.923   3.932   1.587  0.2072  0.0456 -0.3568
  249WAT     H2  832   3.008   4.014   1.681  1.8562 -1.2049 -0.7224
  250WAT      O  833   0.910   3.719   1.750  0.1703  0.3594  0.1019
  250WAT     H1  834   0.931   3.626   1.762  1.4076  0.6919  0.6255
  250WAT     H2  835   0.821   3.718   1.714  0.8709 -1.0967 -1.7582
  251WAT      O  836   1.387   1.982   2.203 -0.4037  0.0881  0.2450
  251WAT     H1  837   1.458   1.927   2.169  0.6952  0.0890  2.3983
  251WAT     H2  838   1.425   2.070   2.205 -1.2393  0.4863 -0.6296
  252WAT      O  839   2.360   1.945   3.601 -0.1040 -0.7699 -0.6614
  252WAT     H1  840   2.368   1.943   3.505  0.6738 -1.7628 -0.5942
  252WAT     H2  841   2.412   1.870   3.630  1.1427  0.5379  0.6446
  253WAT      O  842   1.784   3.127   3.478  0.0889  0.2380 -0.5818
  253WAT     H1  843   1.827   3.195   3.426 -0.2136  0.9423  0.0772
  253WAT     H2  844   1.692   3.132   3.452  0.0001  0.3432 -0.2534
  254WAT      O  845   2.619   2.537   0.204  0.0903 -0.5554 -0.3145
  254WAT     H1  846   2.681   2.577   0.265 -2.0881  2.2100  0.3277
  254WAT     H2  847   2.632   2.585   0.122 -1.5783  0.5852  0.0354
  255WAT      O  848   1.769   1.373   1.620  0.7693 -0.1513  0.5677
  255WAT     H1  849   1.835   1.441   1.611 -1.4432  2.0964  0.3747
  255WAT     H2  850   1.750   1.370   1.714 -1.4339  1.9376  0.2725
  256WAT      O  851   0.941   0.038   1.583 -0.4336 -0.1472 -0.2654
  256WAT     H1  852   0.932   0.052   1.677  1.7253  1.3442 -0.2193
  256WAT     H2  853   0.965  -0.054   1.575  0.7977  0.0586  0.7839
  257WAT      O  854   3.528   0.567   3.277  0.6267 -0.2189 -0.1174
  257WAT     H1  855   3.554   0.475   3.285  1.4881  0.0576  0.5437
  257WAT     H2  856   3.455   0.567   3.216  1.0706 -1.2663 -0.6715
  258WAT      O  857   3.476   2.579   2.118 -0.1743 -0.1472  0.4616
  258WAT     H1  858   3.553   2.620   2.078  0.0105  1.4901  2.3640
  258WAT     H2  859   3.512   2.508   2.171  0.3650  1.9870  3.1242
  259WAT      O  860   2.685   2.057   0.023 -0.3021  0.2052  0.0796
  259WAT     H1  861   2.629   2.095  -0.045 -0.1081  1.9751  0.8432
  259WAT     H2  862   2.737   1.990  -0.023 -1.5076  0.0230 -1.0818
  260WAT      O  863   0.120   1.867   3.801  0.3442  0.1565  0.2353
  260WAT     H1  864   0.117   1.911   3.716  0.5101 -1.2313 -0.5166
  260WAT     H2  865   0.044   1.809   3.801  0.8836 -0.5687  0.6378
  261WAT      O  866   1.133   3.915   2.112  0.3972  0.1066 -0.1284
  261WAT     H1  867   1.115   3.885   2.201 -0.0091  0.0641 -0.2220
  261WAT     H2  868   1.226   3.940   2.113  0.6242 -0.7260  0.0648
  262WAT      O  869   2.010   0.272   3.004  0.1734 -0.1555 -0.5374
  262WAT     H1  870   1.991   0.345   3.062 -0.3805 -0.2791 -0.5551
  262WAT     H2  871   1.954   0.286   2.928 -0.2461 -0.8106 -0.3586
  263WAT      O  872   2.712   1.946   2.383  0.1449  0.6346  0.0240
  263WAT     H1  873   2.803   1.920   2.401 -0.5180 -1.4703  0.5666
  263WAT     H2  874   2.712   2.041   2.396  1.4162  0.2704  4.0482
  264WAT      O  875   2.953   2.600   0.500 -0.2447 -0.4355 -0.4692
  264WAT     H1  876   2.990   2.674   0.451 -0.6356 -0.3012 -0.5654
  264WAT     H2  877   2.901   2.640   0.569 -0.6156 -0.6141 -0.6386
  265WAT      O  878   3.611   0.524   2.868  0.1124  0.1872  0.2959
  265WAT     H1  879   3.647   0.555   2.785 -1.5450 -2.6754 -1.6706
  265WAT     H2  880   3.658   0.443   2.886 -1.0138 -0.3584  0.9473
  266WAT      O  881   2.943   3.520   3.153  0.1033 -0.1377  0.1323
  266WAT     H1  882   2.869   3.462   3.167  0.2141 -0.3988 -0.3431
  266WAT     H2  883   2.997   3.475   3.088  0.4061  0.2972  0.0777
  267WAT      O  884   3.061   2.561   2.439 -0.0892  0.1685  0.1070
  267WAT     H1  885   3.066   2.527   2.349 -0.4244  0.3539  0.0162
  267WAT     H2  886   3.138   2.618   2.447 -1.0975  1.7302 -0.7383
  268WAT      O  887   0.501   3.317   3.517  0.0543  0.0393  0.3932
  268WAT     H1  888   0.428   3.332   3.576  0.1081 -0.0602  0.4866
  268WAT     H2  889   0.495   3.224   3.494  1.0560 -0.3602  1.6370
  269WAT      O  890   0.291   3.365   3.722  0.0688 -0.0821 -0.0405
  269WAT     H1  891   0.260   3.422   3.792  2.3603  2.1613 -0.7026
  269WAT     H2  892   0.236   3.387   3.647  0.8530  1.2360 -0.2524
  270WAT      O  893   1.511   2.363   1.038  0.1789 -0.0187  0.3348
  270WAT     H1  894   1.549   2.300   1.100 -1.7662 -1.9122 -0.2490
  270WAT     H2  895   1.442   2.407   1.087  1.5270  1.7394  0.7362
  271WAT      O  896   2.404   2.687   3.976 -0.6907 -0.0682  0.4130
  271WAT     H1  897   2.343   2.661   4.044 -2.4059  2.4009 -0.0426
  271WAT     H2  898   2.454   2.760   4.014 -0.5601  0.2946 -0.4242
  272WAT      O  899   1.377   2.628   1.144 -0.5202  1.3745  0.4752
  272WAT     H1  900   1.447   2.681   1.182 -0.4832  0.9693  0.9758
  272WAT     H2  901   1.413   2.598   1.060 -0.2835  1.5698  0.5054
  273WAT      O  902   0.265   3.342   2.258 -0.0594 -0.1568  0.0443
  273WAT     H1  903   0.208   3.326   2.182 -1.1803  1.6400  0.4498
  273WAT     H2  904   0.345   3.379   2.221 -0.7180  0.9951 -0.2735
  274WAT      O  905   1.332   3.404   3.726 -0.5166 -0.3319 -0.4177
  274WAT     H1  906   1.305   3.415   3.817  0.6737  0.3957 -0.1394
  274WAT     H2  907   1.249   3.393   3.678 -1.3712  1.9398  0.3971
  275WAT      O  908   2.762   0.074   1.339 -0.2926 -0.0432  0.2731
  275WAT     H1  909   2.687   0.070   1.398 -0.8387 -0.6510 -0.4257
  275WAT     H2  910   2.768   0.166   1.313 -0.8592 -0.0019  0.2750
  276WAT      O  911   1.758   3.917   1.099 -0.5367 -0.4537  0.1135
  276WAT     H1  912   1.839   3.868   1.108 -0.6900 -0.5478  1.1322
  276WAT     H2  913   1.713   3.904   1.182 -1.8412 -0.8289 -0.6258
  277WAT      O  914   2.448   3.373   3.131 -0.5346  0.2984  0.1862
  277WAT     H1  915   2.403   3.455   3.152 -0.6766 -0.0851  1.4237
  277WAT     H2  916   2.450   3.371   3.035  0.8435  2.5164  0.0833
  278WAT      O  917   3.379   4.089   0.549 -0.2722  0.3254  0.6252
  278WAT     H1  918   3.340   4.132   0.472  1.4074  1.4688  0.3541
  278WAT     H2  919   3.410   4.005   0.516  0.0444  0.6240  0.1431
  279WAT      O  920   0.568   0.032   0.642 -0.0965 -0.5537 -0.4415
  279WAT     H1  921   0.602   0.078   0.566 -2.6130  0.6783 -0.9398
  279WAT     H2  922   0.473   0.033   0.630 -0.4593 -2.2813  1.6352
  280WAT      O  923   2.347   3.048   1.123  0.1147  0.0713 -0.1416
  280WAT     H1  924   2.334   3.052   1.217 -2.2436  0.2958 -0.4164
  280WAT     H2  925   2.424   3.104   1.107  1.8144 -1.5294  1.7686
  281WAT      O  926   1.971   2.459   2.641  0.5142 -0.1260  0.3681
  281WAT     H1  927   1.912   2.387   2.661  1.2805 -0.9236 -0.1367
  281WAT     H2  928   1.946   2.529   2.701  0.0971 -0.9952  1.2225
  282WAT      O  929   0.064   1.215   1.131  0.6989 -0.3154 -0.2609
  282WAT     H1  930   0.126   1.266   1.183  0.2896  0.1417 -0.2069
  282WAT     H2  931  -0.009   1.199   1.191  0.3641 -0.0599 -0.5986
  283WAT      O  932   2.865   2.686   3.474 -0.1450 -0.3879 -0.2987
  283WAT     H1  933   2.949   2.725   3.452 -0.6648  0.0368 -1.6649
  283WAT     H2  934   2.865   2.601   3.429  0.6338 -1.6662  1.9603
  284WAT      O  935   2.218   2.648   2.110  0.0097  0.3713  0.4269
  284WAT     H1  936   2.149   2.598   2.154 -0.6541 -0.8869 -1.8865
  284WAT     H2  937   2.174   2.725   2.076  0.0258  0.1869 -0.0081
  285WAT      O  938   0.351   2.104   3.657 -0.2690  0.4142 -0.1174
  285WAT     H1  939   0.353   2.199   3.646 -0.9712  0.3628 -0.7505
  285WAT     H2  940   0.385   2.089   3.746  1.8279  1.0992 -0.7450
  286WAT      O  941   1.009   0.814   2.665 -0.3634 -0.0535 -0.1801
  286WAT     H1  942   0.978   0.760   2.592 -0.1482 -0.9189  0.3463
  286WAT     H2  943   1.101   0.831   2.644 -1.1140  2.5464 -1.7609
  287WAT      O  944   1.184   0.694   2.005 -0.1120  0.1617 -0.1327
  287WAT     H1  945   1.204   0.634   1.934  0.7583 -0.3278  0.5051
  287WAT     H2  946   1.091   0.715   1.994 -0.7294 -2.1085  0.2223
  288WAT      O  947   0.665   2.217   2.319 -0.5977  0.1321 -0.0339
  288WAT     H1  948   0.741   2.261   2.359  1.0360 -1.9184 -0.6833
  288WAT     H2  949   0.601   2.212   2.390  1.1645 -0.9673  1.5904
  289WAT      O  950   1.273   3.853   3.233  0.1262  1.0251 -0.0103
  289WAT     H1  951   1.341   3.797   3.269 -0.0196  0.1659 -1.0157
  289WAT     H2  952   1.210   3.863   3.304  0.5803  0.6229  0.4571
  290WAT      O  953   0.229   3.637   1.465  0.3943 -0.0715  0.0847
  290WAT     H1  954   0.286   3.681   1.403  0.0219 -0.4911 -0.5631
  290WAT     H2  955   0.287   3.609   1.536  0.7724  0.6639  0.0728
  291WAT      O  956   0.189   0.212   1.132  0.1024 -0.1860 -0.0107
  291WAT     H1  957   0.242   0.174   1.063 -1.3026 -1.4494 -0.4591
  291WAT     H2  958   0.174   0.140   1.194  0.2864  0.5849  0.9683
  292WAT      O  959   0.856   0.515   2.186  0.0612  0.6687  0.0399
  292WAT     H1  960   0.892   0.430   2.158  0.6379  1.2486 -1.0660
  292WAT     H2  961   0.790   0.493   2.251  2.4196 -0.4742  2.2292
  293WAT      O  962   1.054   2.685   1.243  0.5958  0.0567  0.1149
  293WAT     H1  963   1.075   2.774   1.271 -1.7821  1.2519 -1.5177
  293WAT     H2  964   0.988   2.656   1.305  0.4129 -0.0536 -0.1340
  294WAT      O  965   1.747   0.424   3.689  0.0780 -0.0225  0.3640
  294WAT     H1  966   1.757   0.333   3.717  0.4350  0.3743  1.5807
  294WAT     H2  967   1.755   0.475   3.770  1.3342  1.1903 -0.4737
  295WAT      O  968   2.672   2.411   3.619 -0.1777 -0.5702  0.1257
  295WAT     H1  969   2.620   2.423   3.698 -0.2293 -0.2625  0.0450
  295WAT     H2  970   2.710   2.323   3.628  0.2125 -0.3412  0.7154
  296WAT      O  971   1.215   2.352   2.835 -0.5494 -0.2575 -0.1709
  296WAT     H1  972   1.191   2.283   2.773 -1.7799  0.3313 -0.3841
  296WAT     H2  973   1.217   2.308   2.920 -0.7619 -0.6722 -0.3745
  297WAT      O  974   2.223   0.220   2.658 -0.2537  0.3969 -0.0427
  297WAT     H1  975   2.291   0.287   2.672 -2.3884  2.6217  0.4644
  297WAT     H2  976   2.170   0.255   2.586 -1.1860 -0.9898 -0.0611
  298WAT      O  977   2.227   0.030   0.102  0.4896  0.3948 -0.1194
  298WAT     H1  978   2.299   0.061   0.047 -0.8875  1.2475 -1.5173
  298WAT     H2  979   2.180  -0.033   0.048 -1.4933  1.9877 -0.4138
  299WAT      O  980   2.815   1.786   0.213 -0.1718 -0.4221  0.3307
  299WAT     H1  981   2.771   1.738   0.143 -0.4545 -2.3750  1.7675
  299WAT     H2  982   2.752   1.854   0.238 -0.2993 -0.0564 -0.8735
  300WAT      O  983   2.106   1.120   0.322  0.2722 -0.3383 -0.1123
  300WAT     H1  984   2.138   1.137   0.233 -0.6899  1.5368 -0.1396
  300WAT     H2  985   2.166   1.169   0.379  0.7620 -1.3674  0.2906
  301WAT      O  986   0.091   0.900   1.647 -0.1718  0.3125  0.7468
  301WAT     H1  987   0.150   0.915   1.721  0.8099  0.0776  0.0472
  301WAT     H2  988   0.127   0.822   1.604 -0.2411  0.9062 -0.4219
  302WAT      O  989   3.216   0.064   1.473  0.3691 -0.3819  0.2040
  302WAT     H1  990   3.265   0.124   1.416 -0.0688 -1.0029 -0.8525
  302WAT     H2  991   3.147   0.119   1.510  0.9892  0.1589  0.5705
  303WAT      O  992   1.832   1.418   3.752 -0.1847  0.3423  0.0819
  303WAT     H1  993   1.817   1.369   3.833  1.2468  0.5103  0.4885
  303WAT     H2  994   1.913   1.381   3.717 -1.3498 -0.5007 -1.8907
  304WAT      O  995   3.069   0.641   1.166 -0.3545 -0.6820  0.2610
  304WAT     H1  996   3.146   0.591   1.195 -0.3854 -0.6358  0.4196
  304WAT     H2  997   3.069   0.719   1.220  0.6683  0.3294 -1.1334
  305WAT      O  998   2.904   0.245   2.735 -0.0798  0.5624  0.9293
  305WAT     H1  999   2.940   0.203   2.813 -2.3001 -0.4716  1.4819
  305WAT     H2 1000   2.812   0.261   2.757 -0.8850 -0.1042 -1.6023
  306WAT      O 1001   0.176   3.917   1.040  0.1761 -0.1585 -0.2436
  306WAT     H1 1002   0.244   3.893   0.977  1.0099  0.6081  0.3430
  306WAT     H2 1003   0.224   3.958   1.112 -0.7280 -1.1733  0.9846
  307WAT      O 1004   2.808   2.145   1.879 -0.0531 -0.1883  0.1120
  307WAT     H1 1005   2.722   2.164   1.842  0.5289  1.5446 -0.4542
  307WAT     H2 1006   2.810   2.195   1.961  0.4197 -0.2154  0.1170
  308WAT      O 1007   1.180   2.207   3.072  0.2175 -0.0534  0.2210
  308WAT     H1 1008   1.204   2.206   3.165 -0.0250  0.4236  0.2921
  308WAT     H2 1009   1.084   2.206   3.073  0.2049  0.7964 -0.0127
  309WAT      O 1010   1.239   2.934   3.699 -0.1767  0.0511 -0.1920
  309WAT     H1 1011   1.324   2.978   3.702 -0.6939  1.0674  0.0270
  309WAT     H2 1012   1.260   2.842   3.686  0.9247  0.4655 -1.5719
  310WAT      O 1013   1.055   2.206   0.949 -0.3033 -0.0288 -0.1924
  310WAT     H1 1014   0.960   2.208   0.956 -0.3754  0.3268 -1.0758
  310WAT     H2 1015   1.072   2.160   0.867  0.2274  1.0459 -0.7129
  311WAT      O 1016   2.481   2.568   2.747 -0.2570  0.0092  0.2474
  311WAT     H1 1017   2.498   2.644   2.691  2.5356 -0.8713 -0.2960
  311WAT     H2 1018   2.502   2.493   2.691 -0.7804 -1.0609  1.4514
  312WAT      O 1019   2.615   1.427   3.784  0.1710 -0.0156  0.1396
  312WAT     H1 1020   2.695   1.405   3.737  0.2109  1.4747 -0.5432
  312WAT     H2 1021   2.622   1.379   3.866  0.7493 -1.5701 -0.7876
  313WAT      O 1022   3.030   1.618   3.285  0.0894 -0.6052  0.3315
  313WAT     H1 1023   3.028   1.575   3.371  0.6678  0.0058  0.6698
  313WAT     H2 1024   3.049   1.548   3.223 -2.2471 -1.4062  0.4303
  314WAT      O 1025   3.340   1.590   3.526  0.2974 -0.4211  0.1881
  314WAT     H1 1026   3.344   1.612   3.619 -3.2495 -0.0250  0.4032
  314WAT     H2 1027   3.336   1.675   3.481 -2.8701 -0.4392  0.1896
  315WAT      O 1028   1.975   2.968   2.620  0.5465 -0.1404  0.5058
  315WAT     H1 1029   1.895   2.976   2.567  1.8913  2.6978 -1.2964
  315WAT     H2 1030   1.997   2.875   2.613 -1.4390 -0.6035 -0.7083
  316WAT      O 1031   1.731   0.824   0.805  0.1555 -0.4897 -0.0718
  316WAT     H1 1032   1.664   0.758   0.784  1.5590 -1.7378 -0.8524
  316WAT     H2 1033   1.807   0.772   0.831  1.2339  0.8518 -0.4728
  317WAT      O 1034   0.083   1.923   0.181 -0.1277 -0.2230  0.2014
  317WAT     H1 1035   0.157   1.871   0.210  0.9738  0.7529 -0.7371
  317WAT     H2 1036   0.068   1.986   0.252 -0.3883 -0.7474  0.6125
  318WAT      O 1037   2.966   3.477   0.082  0.1625  0.3985 -0.0621
  318WAT     H1 1038   2.996   3.568   0.085 -0.1877  0.5288 -0.3658
  318WAT     H2 1039   2.872   3.482   0.096 -0.2595  0.3278 -2.3789
  319WAT      O 1040   0.434   3.587   0.989 -0.5695 -0.0855 -0.0409
  319WAT     H1 1041   0.378   3.509   0.989 -2.4474  1.1696 -1.2911
  319WAT     H2 1042   0.382   3.654   1.034  1.8947 -0.0165  3.0695
  320WAT      O 1043   3.139   0.451   3.492 -0.3471  0.3016 -0.6254
  320WAT     H1 1044   3.052   0.424   3.522  0.2277 -0.3461  0.5170
  320WAT     H2 1045   3.155   0.396   3.414 -0.4493 -0.4849 -0.1050
  321WAT      O 1046   0.926   2.357   3.433  0.5181  0.2786  0.1715
  321WAT     H1 1047   0.956   2.447   3.421  1.3393 -0.0306 -0.1544
  321WAT     H2 1048   0.997   2.314   3.480  0.7120 -0.5318 -0.8236
  322WAT      O 1049   1.621   3.056   0.155  0.5739  0.9074 -0.2500
  322WAT     H1 1050   1.655   2.967   0.145  0.4790  0.9329 -0.8292
  322WAT     H2 1051   1.563   3.051   0.232  0.5675  0.4692 -0.2812
  323WAT      O 1052   0.859   0.113   3.783  0.6946  0.4441 -0.0534
  323WAT     H1 1053   0.807   0.093   3.861  0.8104  1.0496  0.1831
  323WAT     H2 1054   0.947   0.083   3.805  0.5990  0.0478 -0.1933
  324WAT      O 1055   0.787   1.910   3.509 -0.3769 -0.3669  0.0479
  324WAT     H1 1056   0.697   1.942   3.497 -0.7544 -1.1902  0.5365
  324WAT     H2 1057   0.842   1.974   3.465 -1.2465 -0.0918 -0.6645
  325WAT      O 1058   1.204   0.699   0.085  0.4420  0.2923 -0.1164
  325WAT     H1 1059   1.256   0.715   0.007  0.9083  3.5863  0.7034
  325WAT     H2 1060   1.208   0.605   0.098  1.0255 -0.2779 -3.5364
  326WAT      O 1061   3.430   3.013   3.518  0.1707  0.3676  0.3633
  326WAT     H1 1062   3.429   2.974   3.431 -0.1657  0.5534  0.2844
  326WAT     H2 1063   3.469   2.945   3.574  0.0528  0.1098  0.1357
  327WAT      O 1064   1.954   1.686   2.964  0.5496  0.2545  0.2209
  327WAT     H1 1065   1.939   1.761   2.908  0.8167  0.1071 -0.0545
  327WAT     H2 1066   2.049   1.684   2.977  0.7430 -0.9966 -1.1398
  328WAT      O 1067   1.881   3.369   0.708  0.1024  0.1687  0.0174
  328WAT     H1 1068   1.893   3.462   0.727 -0.7407  0.7689 -2.1315
  328WAT     H2 1069   1.956   3.326   0.749  1.5833  2.0211 -0.6300
  329WAT      O 1070   3.060   0.255   2.514 -0.0908  0.0327  0.0306
  329WAT     H1 1071   3.137   0.294   2.554 -0.3352  2.0608 -1.3422
  329WAT     H2 1072   3.000   0.239   2.587  1.0784 -0.2730  0.9369
  330WAT      O 1073   1.201   1.323   2.980  0.3700 -0.8278 -0.5626
  330WAT     H1 1074   1.166   1.395   2.928 -0.1363 -0.3145  0.4518
  330WAT     H2 1075   1.182   1.245   2.929  1.1321 -0.2306 -1.7854
  331WAT      O 1076   0.228   3.536   0.562  0.4231 -0.2800 -0.5422
  331WAT     H1 1077   0.270   3.452   0.580 -0.0896 -0.5496 -0.5976
  331WAT     H2 1078   0.223   3.579   0.648  0.5213 -0.3852 -0.4834
  332WAT      O 1079   3.495   0.163   2.588  0.2629 -0.0835  0.1135
  332WAT     H1 1080   3.567   0.198   2.534  1.2083 -0.9472  0.7684
  332WAT     H2 1081   3.531   0.082   2.625 -1.5127 -1.2260 -0.5636
  333WAT      O 1082   3.136   1.256   2.768 -0.3030 -0.0720 -0.2803
  333WAT     H1 1083   3.084   1.177   2.754 -0.1320 -0.0735 -0.9268
  333WAT     H2 1084   3.201   1.255   2.699  0.9947 -0.4033  0.8984
  334WAT      O 1085   2.856   3.473   0.849 -0.6406 -0.0046 -0.2903
  334WAT     H1 1086   2.822   3.462   0.760  0.9748  0.0637 -0.9629
  334WAT     H2 1087   2.895   3.388   0.870 -3.1212 -0.8234  1.3617
  335WAT      O 1088   0.044   0.604   2.647  0.3578  0.1995  0.2184
  335WAT     H1 1089   0.029   0.547   2.571  1.5495 -0.1216  0.2039
  335WAT     H2 1090   0.137   0.627   2.642  0.9082 -1.1983  2.4699
  336WAT      O 1091   0.803   0.202   3.422  1.1488 -0.4066  0.0474
  336WAT     H1 1092   0.794   0.297   3.412 -0.6732 -0.6312 -0.8222
  336WAT     H2 1093   0.839   0.172   3.338 -0.1815 -0.6765 -0.4505
  337WAT      O 1094   3.328   0.895   0.248  0.1192 -0.4461  0.4343
  337WAT     H1 1095   3.336   0.978   0.201  0.4468 -0.8026 -0.1492
  337WAT     H2 1096   3.283   0.836   0.186  0.1214 -0.7779  0.7440
  338WAT      O 1097   0.405   2.326   2.113  0.1973  0.5901 -0.2861
  338WAT     H1 1098   0.492   2.294   2.136 -0.9298 -1.2587  1.8043
  338WAT     H2 1099   0.367   2.353   2.196 -1.0191  2.0686 -1.2610
  339WAT      O 1100   0.608   0.780   3.696 -0.2301  0.5440  0.2273
  339WAT     H1 1101   0.690   0.748   3.657 -0.1733  2.3047 -1.2112
  339WAT     H2 1102   0.541   0.758   3.632 -0.6257  0.6544  0.6010
  340WAT      O 1103   2.966   3.009   3.715 -0.7715  0.2294 -0.0349
  340WAT     H1 1104   2.997   3.093   3.750 -0.5809 -0.4860  1.5997
  340WAT     H2 1105   2.986   3.014   3.622 -0.0025  1.6773  0.1686
  341WAT      O 1106   1.201   3.019   3.369 -0.5731  0.2344 -0.7033
  341WAT     H1 1107   1.287   2.988   3.398  0.1292  0.7906 -2.0598
  341WAT     H2 1108   1.188   3.102   3.416 -1.4428 -0.9393  1.2326
  342WAT      O 1109   1.348   3.105   1.819  0.2707 -0.5971 -0.3995
  342WAT     H1 1110   1.313   3.160   1.889  1.7136  0.5866 -0.5503
  342WAT     H2 1111   1.277   3.045   1.797 -0.3826 -0.6725  1.7327
  343WAT      O 1112   0.848   1.051   3.938  0.7599 -0.2202  0.8048
  343WAT     H1 1113   0.757   1.044   3.909  0.3387  0.3206  1.9637
  343WAT     H2 1114   0.894   0.984   3.888  0.0324  0.5439 -0.9688
  344WAT      O 1115   3.362   0.541   3.919 -0.1346 -0.1855  0.1275
  344WAT     H1 1116   3.452   0.572   3.924  0.1562 -0.5672 -1.7088
  344WAT     H2 1117   3.308   0.619   3.931  0.4382  0.0615  1.1141
  345WAT      O 1118   1.930   1.720   0.845 -0.6034 -0.3151  0.4208
  345WAT     H1 1119   1.854   1.736   0.900  0.0150 -0.4139  1.3200
  345WAT     H2 1120   1.940   1.625   0.844 -1.0122 -0.3601 -0.4334
  346WAT      O 1121   2.934   2.352   0.386  0.0830 -0.2181 -0.6019
  346WAT     H1 1122   2.941   2.352   0.291 -0.0643 -0.1452 -0.6138
  346WAT     H2 1123   2.930   2.445   0.410  2.8308 -0.1110 -0.3102
  347WAT      O 1124   3.343   0.385   2.606 -0.5371  0.2514  0.1349
  347WAT     H1 1125   3.345   0.411   2.514 -1.7213  1.3129  0.3763
  347WAT     H2 1126   3.396   0.306   2.610  0.2621  0.6734 -1.2958
  348WAT      O 1127   3.509   3.760   3.003  0.2726 -0.0598  0.4381
  348WAT     H1 1128   3.511   3.830   2.937 -0.2937 -1.4683 -1.1405
  348WAT     H2 1129   3.579   3.783   3.064  1.7811  0.5971 -1.4172
  349WAT      O 1130   3.117   2.390   2.669  0.1757  0.5429 -0.1106
  349WAT     H1 1131   3.068   2.396   2.587 -1.6426 -1.2876  0.7475
  349WAT     H2 1132   3.116   2.296   2.690 -0.3687  1.0646  2.5355
  350WAT      O 1133   0.499   3.694   1.365 -0.1265 -0.3490 -0.3124
  350WAT     H1 1134   0.547   3.763   1.410 -0.5851 -0.7477  0.8054
  350WAT     H2 1135   0.564   3.656   1.304  0.7098 -0.2744  0.5123
  351WAT      O 1136   1.117   1.110   2.496 -0.2803  0.4079  0.2763
  351WAT     H1 1137   1.135   1.023   2.461 -0.6528  0.4769 -0.0998
  351WAT     H2 1138   1.051   1.146   2.436 -1.9227  0.0358  1.8009
  352WAT      O 1139   2.445   2.512   2.165 -0.1588  0.6434 -0.4679
  352WAT     H1 1140   2.498   2.529   2.087  1.0311  0.5682  0.2989
  352WAT     H2 1141   2.364   2.559   2.149  0.1830  0.8829 -1.6182
  353WAT      O 1142   0.408   1.061   2.832 -0.3416 -0.1525 -0.1628
  353WAT     H1 1143   0.345   1.002   2.873 -0.8546  0.7028  0.2974
  353WAT     H2 1144   0.373   1.077   2.744 -0.8606  0.4353  0.1414
  354WAT      O 1145   0.231   1.097   2.609 -0.1945  0.6942  0.0859
  354WAT     H1 1146   0.193   1.185   2.609  1.2140  1.3793 -1.7979
  354WAT     H2 1147   0.269   1.088   2.522  2.0705 -0.7248  1.1341
  355WAT      O 1148   2.123   0.929   3.675 -0.4494 -0.0142 -0.1423
  355WAT     H1 1149   2.038   0.972   3.684 -0.0717  0.7311 -0.0877
  355WAT     H2 1150   2.103   0.836   3.681 -1.2027  0.1722  0.3717
  356WAT      O 1151   2.743   3.613   2.112 -0.1013 -0.3014  0.3523
  356WAT     H1 1152   2.778   3.548   2.051 -3.6156 -0.4312 -1.8007
  356WAT     H2 1153   2.809   3.682   2.114  0.6055 -0.7378 -2.9072
  357WAT      O 1154   1.992   0.089   2.713 -0.0426 -0.0535 -0.0536
  357WAT     H1 1155   1.955   0.176   2.701  0.3937  0.3489  1.3428
  357WAT     H2 1156   2.087   0.103   2.711  0.0931 -0.0197  2.8270
  358WAT      O 1157   0.970   2.781   2.582 -0.1923  0.5855 -0.1494
  358WAT     H1 1158   0.976   2.813   2.492  0.2160 -0.0022 -0.3381
  358WAT     H2 1159   1.061   2.777   2.612 -0.3946  2.7093  1.0056
  359WAT      O 1160   3.399   2.999   1.677 -0.0879 -0.3400  0.2610
  359WAT     H1 1161   3.329   3.011   1.613 -0.0349 -0.9558  0.0763
  359WAT     H2 1162   3.407   2.904   1.685  1.0663 -0.2874 -0.0996
  360WAT      O 1163   3.354   2.699   2.351  0.1644  0.5670 -0.5291
  360WAT     H1 1164   3.389   2.671   2.266 -0.2299  0.9947 -0.8386
  360WAT     H2 1165   3.301   2.777   2.331  0.6452  1.0946  0.2086
  361WAT      O 1166   2.918   3.440   2.778  0.1775  0.4436  0.6404
  361WAT     H1 1167   2.934   3.415   2.687  0.4229  0.8056  0.5798
  361WAT     H2 1168   2.962   3.372   2.829  1.6594  1.2268  0.4747
  362WAT      O 1169   1.205   3.247   1.076  0.3688 -0.2748 -0.0550
  362WAT     H1 1170   1.262   3.261   1.001 -0.2368  0.0092 -0.4742
  362WAT     H2 1171   1.116   3.250   1.039  0.0473  0.3735  0.7533
  363WAT      O 1172   2.063   0.466   1.541  0.0993  0.4810  0.4660
  363WAT     H1 1173   2.059   0.437   1.632  0.9657  0.1719  0.4200
  363WAT     H2 1174   2.128   0.536   1.540  0.0105  0.5632  0.1117
  364WAT      O 1175   0.094   0.290   2.779  0.0198  0.1159  0.2357
  364WAT     H1 1176   0.079   0.307   2.686 -0.1880  0.1394  0.2714
  364WAT     H2 1177   0.165   0.349   2.804  1.0955 -0.9334 -0.2530
  365WAT      O 1178   1.475   1.142   2.657 -0.6864  0.1510 -0.3445
  365WAT     H1 1179   1.443   1.143   2.747 -0.3339  1.4918 -0.2014
  365WAT     H2 1180   1.427   1.072   2.614 -0.7177 -0.6274  0.9356
  366WAT      O 1181   1.754   2.575   2.453  0.0813 -0.5326  0.1288
  366WAT     H1 1182   1.712   2.490   2.445 -0.4669 -0.3640  1.0756
  366WAT     H2 1183   1.840   2.557   2.490  0.2528 -0.7340 -0.3585
  367WAT      O 1184   3.394   0.382   1.800  0.3620 -0.1644  0.5175
  367WAT     H1 1185   3.419   0.347   1.714  1.2114  0.9173  0.2976
  367WAT     H2 1186   3.477   0.391   1.847  0.0338  0.3460  1.0165
  368WAT      O 1187   1.430   0.510   3.554 -0.5126 -0.1105  0.0345
  368WAT     H1 1188   1.342   0.479   3.533 -0.0131 -1.3182 -0.3496
  368WAT     H2 1189   1.489   0.454   3.503  0.4640  1.2123 -0.3585
  369WAT      O 1190   1.111   1.131   3.636  0.9623  0.1322  0.2347
  369WAT     H1 1191   1.045   1.197   3.660  2.0256  2.0056 -1.6921
  369WAT     H2 1192   1.187   1.154   3.689  2.2387  2.2939 -2.2719
  370WAT      O 1193   2.577   2.983   3.616  0.6117  0.4955 -0.3923
  370WAT     H1 1194   2.540   2.965   3.529  2.3988  0.8963 -1.2833
  370WAT     H2 1195   2.579   3.079   3.622 -1.7457  0.5230  1.1508
  371WAT      O 1196   0.732   3.618   0.093 -0.2492 -0.3971  0.2000
  371WAT     H1 1197   0.781   3.607   0.012  0.7559 -0.2430  0.7773
  371WAT     H2 1198   0.653   3.565   0.081 -0.3654  0.0311 -1.0756
  372WAT      O 1199   3.304   2.211   0.991  0.1643  0.4148  0.0667
  372WAT     H1 1200   3.223   2.204   0.941  0.3445 -1.1559 -0.0514
  372WAT     H2 1201   3.303   2.300   1.026 -1.3642  0.5867 -0.3443
  373WAT      O 1202   3.659   3.418   3.625 -0.1003 -0.5844 -0.3533
  373WAT     H1 1203   3.730   3.416   3.561 -0.6470  1.0909 -1.0738
  373WAT     H2 1204   3.583   3.382   3.579 -0.0328 -1.2334  0.0221
  374WAT      O 1205   2.205   1.952   3.192  0.1650 -0.6458 -0.1464
  374WAT     H1 1206   2.169   1.878   3.240  0.9661 -2.1337 -1.7004
  374WAT     H2 1207   2.139   1.972   3.125 -0.7590  1.1360  1.2271
  375WAT      O 1208   2.662   2.986   1.434 -0.0338 -0.6322 -0.3262
  375WAT     H1 1209   2.671   2.898   1.471 -0.6210 -0.3439  0.5393
  375WAT     H2 1210   2.687   3.044   1.506 -1.9802 -0.0235 -0.0899
  376WAT      O 1211   3.174   2.256   3.035  0.3501 -0.4961 -0.3962
  376WAT     H1 1212   3.100   2.195   3.032  0.1434 -0.2242 -0.8235
  376WAT     H2 1213   3.154   2.314   3.108 -0.1292 -0.0779 -0.8571
  377WAT      O 1214   3.584   0.217   2.983  1.4231 -0.2213  0.2782
  377WAT     H1 1215   3.606   0.244   3.072  2.3793  0.4142 -0.1292
  377WAT     H2 1216   3.654   0.256   2.929  0.1371  0.5357 -0.9005
  378WAT      O 1217   2.384   0.545   3.729  0.4607  0.5136 -0.6856
  378WAT     H1 1218   2.309   0.493   3.701 -1.4417  1.0562  2.9027
  378WAT     H2 1219   2.412   0.505   3.811  2.3080  2.0651 -0.4878
  379WAT      O 1220   0.388   2.837   1.874  0.5480 -0.2471  0.0115
  379WAT     H1 1221   0.331   2.882   1.937  1.2875 -1.8045  1.9020
  379WAT     H2 1222   0.455   2.902   1.852 -0.2639  0.6351  0.0797
  380WAT      O 1223   1.832   0.887   2.063 -0.6192 -0.1472 -0.1505
  380WAT     H1 1224   1.869   0.975   2.050 -1.9131  0.2239 -1.6131
  380WAT     H2 1225   1.811   0.883   2.156 -0.6414  1.1366 -0.0841
  381WAT      O 1226   1.400   0.466   3.955  0.2607 -0.7227 -0.2650
  381WAT     H1 1227   1.424   0.531   4.022  0.0246 -0.2805 -0.6011
  381WAT     H2 1228   1.350   0.516   3.891  2.8644 -0.4705 -2.2695
  382WAT      O 1229   3.485   1.486   0.355 -0.2507  0.5018  0.5712
  382WAT     H1 1230   3.426   1.534   0.297  0.5682  0.4164 -0.3740
  382WAT     H2 1231   3.432   1.463   0.431 -0.7989  2.4819  0.8348
  383WAT      O 1232   3.464   1.700   2.853 -0.2612 -0.0230 -0.4664
  383WAT     H1 1233   3.474   1.652   2.770 -2.5229  2.3482 -2.3011
  383WAT     H2 1234   3.372   1.689   2.876  0.3458 -0.7450  1.9199
  384WAT      O 1235   1.946   0.920   1.738 -0.1211 -0.6771 -0.6692
  384WAT     H1 1236   1.919   1.005   1.772  0.7311 -0.5583 -0.2840
  384WAT     H2 1237   1.992   0.878   1.811 -0.4146 -1.4212 -0.8944
  385WAT      O 1238   0.668   2.065   1.455 -0.1311  0.1066 -0.2020
  385WAT     H1 1239   0.671   1.969   1.455 -1.1157  0.0633 -0.1488
  385WAT     H2 1240   0.577   2.086   1.433 -0.1447  1.0176  0.6659
  386WAT      O 1241   1.586   2.978   1.835  0.4473  0.0119  0.2597
  386WAT     H1 1242   1.504   3.028   1.838  0.1364 -0.5301  2.3558
  386WAT     H2 1243   1.574   2.917   1.763 -0.8862  0.1292  0.3510
  387WAT      O 1244   0.222   2.132   0.653  0.5241  0.2710 -0.1998
  387WAT     H1 1245   0.158   2.125   0.582 -0.0938  0.8362  0.2878
  387WAT     H2 1246   0.172   2.110   0.732  0.1660  3.3651  0.5622
  388WAT      O 1247   0.645   3.183   0.154 -0.1438  0.4919 -0.0461
  388WAT     H1 1248   0.553   3.183   0.179 -0.1703  0.3157 -0.1388
  388WAT     H2 1249   0.648   3.233   0.072 -0.0898  0.8794  0.1900
  389WAT      O 1250   3.107   2.098   2.630 -0.3398 -0.3301  0.2491
  389WAT     H1 1251   3.052   2.020   2.638 -0.4451 -0.2351  0.4718
  389WAT     H2 1252   3.106   2.119   2.537 -1.7041  0.3944  0.3957
  390WAT      O 1253   0.832   3.368   2.576 -1.1178  0.2624 -0.5775
  390WAT     H1 1254   0.847   3.378   2.482 -0.6521 -0.2304 -0.5566
  390WAT     H2 1255   0.831   3.274   2.591 -0.5947  0.3430  0.0044
  391WAT      O 1256   0.589   2.940   2.503  0.0107  0.1977 -0.1962
  391WAT     H1 1257   0.584   3.013   2.441 -0.0392  0.1601 -0.2373
  391WAT     H2 1258   0.525   2.877   2.470  0.2326  0.0269 -0.3038
  392WAT      O 1259   0.690   2.747   2.230  0.0326 -0.2625  0.6567
  392WAT     H1 1260   0.697   2.678   2.296  1.1418 -0.5136  0.3012
  392WAT     H2 1261   0.775   2.792   2.234 -0.3967  0.5933  0.3508
  393WAT      O 1262   3.132   0.618   2.443 -0.0653  0.1110 -0.3143
  393WAT     H1 1263   3.123   0.560   2.367  0.8988  0.5399 -0.7702
  393WAT     H2 1264   3.114   0.562   2.518 -2.2940 -0.0345 -0.8955
  394WAT      O 1265   1.761   2.822   3.834  0.0963  0.6151 -0.0766
  394WAT     H1 1266   1.749   2.827   3.929  0.2286  1.8510 -0.1098
  394WAT     H2 1267   1.831   2.758   3.822 -1.3577 -1.1871  0.5146
  395WAT      O 1268   2.544   1.383   0.702 -0.0037 -0.0506 -0.0196
  395WAT     H1 1269   2.518   1.476   0.697 -0.0707 -0.1117 -0.9891
  395WAT     H2 1270   2.632   1.381   0.664 -0.6327 -0.6083 -1.5296
  396WAT      O 1271   1.377   0.846   3.844 -0.2674  0.4579 -0.1208
  396WAT     H1 1272   1.396   0.937   3.819 -1.2806  0.5109 -0.7813
  396WAT     H2 1273   1.439   0.794   3.794  0.0917  0.7668 -0.0014
  397WAT      O 1274   2.511   3.694   2.265 -0.2804 -0.4626  0.3578
  397WAT     H1 1275   2.457   3.624   2.300  1.2562 -0.2473  3.5292
  397WAT     H2 1276   2.593   3.652   2.242  1.1294  0.2556  3.4679
  398WAT      O 1277   2.175   2.305   1.319 -0.8398 -0.9176 -0.5173
  398WAT     H1 1278   2.178   2.396   1.288  1.1768 -0.5748  0.4979
  398WAT     H2 1279   2.123   2.309   1.399  0.9502 -0.2095  0.6716
  399WAT      O 1280   0.280   2.668   1.641 -0.9172 -0.1967  0.2250
  399WAT     H1 1281   0.301   2.615   1.717 -1.5546 -0.6274  0.1050
  399WAT     H2 1282   0.258   2.754   1.676  2.0035  0.6292  0.3096
  400WAT      O 1283   3.111   2.820   3.151  0.0197  0.0028 -0.5917
  400WAT     H1 1284   3.141   2.770   3.226 -0.3500 -1.5061 -1.4186
  400WAT     H2 1285   3.021   2.792   3.137 -0.3626  1.2668 -0.7894
  401WAT      O 1286   0.628   2.384   3.027  0.0437  0.1801 -0.0562
  401WAT     H1 1287   0.717   2.371   3.059  0.4296  2.1069 -0.2069
  401WAT     H2 1288   0.583   2.428   3.099 -0.9131 -1.0579  0.1412
  402WAT      O 1289   1.229   1.867   2.490 -0.3779 -0.3498 -0.0903
  402WAT     H1 1290   1.268   1.823   2.415  0.0448  0.0837 -0.1268
  402WAT     H2 1291   1.177   1.938   2.452  0.9364  0.7379  0.0756
  403WAT      O 1292   2.824   3.846   3.186 -0.0939 -0.0387  0.0549
  403WAT     H1 1293   2.915   3.861   3.161  0.0051  0.2006  0.5318
  403WAT     H2 1294   2.778   3.831   3.104  0.1691  0.9621 -0.2916
  404WAT      O 1295   1.280   3.204   2.896 -0.4341 -0.6093  0.2214
  404WAT     H1 1296   1.234   3.199   2.812 -0.6263 -0.4075  0.3156
  404WAT     H2 1297   1.213   3.190   2.962 -0.2682 -0.8491  0.3394
  405WAT      O 1298   1.317   1.313   0.015  0.2235 -0.1273 -0.1157
  405WAT     H1 1299   1.246   1.250   0.017  0.6449 -0.5976  0.8024
  405WAT     H2 1300   1.296   1.371  -0.058 -0.5751 -0.8539 -0.4778
  406WAT      O 1301   0.476   1.524   1.573  0.5382  0.3772 -0.0866
  406WAT     H1 1302   0.469   1.493   1.663  0.8962 -0.7803 -0.4396
  406WAT     H2 1303   0.567   1.551   1.564  0.3054  1.2524  0.1252
  407WAT      O 1304   0.355   4.014   3.917 -0.8615 -0.2501  0.1891
  407WAT     H1 1305   0.311   3.931   3.897 -1.3172  0.1305 -0.4193
  407WAT     H2 1306   0.435   4.010   3.864 -0.7795 -0.3915  0.3219
  408WAT      O 1307   1.788   1.926   0.513  0.4839  0.0985  0.7207
  408WAT     H1 1308   1.850   1.951   0.444 -0.2426  0.7933  0.2907
  408WAT     H2 1309   1.764   2.009   0.554  0.5325 -0.2631  1.4865
  409WAT      O 1310   0.365   0.741   2.210  0.3094 -0.3870  0.1632
  409WAT     H1 1311   0.325   0.735   2.297  0.2206 -0.7794  0.0983
  409WAT     H2 1312   0.293   0.726   2.149  0.5382 -1.0571  0.0442
  410WAT      O 1313   0.348   0.932   1.043  0.0372  0.1219  0.3361
  410WAT     H1 1314   0.331   0.989   1.118 -1.1745  0.7071 -0.3690
  410WAT     H2 1315   0.410   0.867   1.077  0.0789  0.8048  1.6359
  411WAT      O 1316   3.561   1.291   1.360 -0.3914 -0.0361 -0.3612
  411WAT     H1 1317   3.616   1.233   1.412 -0.5614  0.6337  0.5786
  411WAT     H2 1318   3.564   1.375   1.406 -2.6120 -0.1148  0.0090
  412WAT      O 1319   3.526   1.016   3.134 -0.3640  0.3439  0.6432
  412WAT     H1 1320   3.475   0.937   3.150  0.3356 -0.1892  0.3069
  412WAT     H2 1321   3.481   1.084   3.184 -1.3930 -0.1030  0.3478
  413WAT      O 1322   1.840   2.621   1.933  0.4126  0.0414  0.1016
  413WAT     H1 1323   1.825   2.630   1.839 -1.2056  0.0388  0.3380
  413WAT     H2 1324   1.863   2.709   1.963  0.4769  0.1298 -0.2065
  414WAT      O 1325   1.960   2.037   1.767 -0.6924  0.7887 -0.2023
  414WAT     H1 1326   2.035   1.987   1.734 -1.2545  0.0615 -0.3896
  414WAT     H2 1327   1.999   2.115   1.806  0.1345  0.6245 -0.6807
  415WAT      O 1328   2.124   0.854   1.060 -0.2521 -0.0305 -0.0767
  415WAT     H1 1329   2.174   0.923   1.103 -0.7208 -0.3604  1.0232
  415WAT     H2 1330   2.166   0.773   1.089 -0.3149 -0.2460 -0.5805
  416WAT      O 1331   1.867   0.027   0.074 -0.0555 -0.0790  0.3510
  416WAT     H1 1332   1.924   0.097   0.104  1.8256 -1.1861 -0.4239
  416WAT     H2 1333   1.801   0.071   0.020 -0.7437  1.3733  2.2756
  417WAT      O 1334   2.940   3.154   0.439  0.3918  0.4024 -0.1938
  417WAT     H1 1335   3.001   3.115   0.376 -1.6853 -1.7316 -1.0241
  417WAT     H2 1336   2.875   3.199   0.384 -0.3450  0.1961  0.4835
  418WAT      O 1337   1.932   0.826   0.021 -0.0280 -0.0324 -0.4577
  418WAT     H1 1338   1.965   0.914   0.002  0.5072 -0.2411 -0.5158
  418WAT     H2 1339   2.008   0.778   0.054 -0.4356 -0.3267  0.0670
  419WAT      O 1340   2.375   1.278   1.273  0.4380  0.1700  0.2612
  419WAT     H1 1341   2.330   1.194   1.277  0.1296  0.2834 -0.5916
  419WAT     H2 1342   2.322   1.337   1.325  0.8482 -0.2385  1.1673
  420WAT      O 1343   0.617   3.504   3.671 -0.0417  0.1454  0.2796
  420WAT     H1 1344   0.594   3.445   3.600 -0.0040  0.1975  0.2242
  420WAT     H2 1345   0.655   3.580   3.628 -0.3533  0.3326  0.3340
  421WAT      O 1346   2.469   0.787   2.371 -0.2861 -0.1825  0.1165
  421WAT     H1 1347   2.414   0.716   2.337 -1.5398  0.2142  1.2065
  421WAT     H2 1348   2.558   0.763   2.346 -0.6883 -2.0930  0.3630
  422WAT      O 1349   0.633   1.545   2.405 -0.0712 -0.4119 -0.2470
  422WAT     H1 1350   0.662   1.462   2.368  0.1135 -0.2640 -0.4335
  422WAT     H2 1351   0.538   1.535   2.413 -0.2495 -0.0674 -1.7203
  423WAT      O 1352   3.582   0.776   0.326  0.1830 -0.0608 -0.3142
  423WAT     H1 1353   3.499   0.810   0.291  1.2316  1.0618 -1.8424
  423WAT     H2 1354   3.614   0.718   0.257  0.3776 -0.9914  0.5448
  424WAT      O 1355   2.689   1.502   2.375 -0.3005 -0.2693  0.3323
  424WAT     H1 1356   2.629   1.576   2.380 -1.0559 -0.9679  3.0257
  424WAT     H2 1357   2.771   1.535   2.413 -0.2878 -0.4804  0.4932
  425WAT      O 1358   1.142   1.207   1.521  0.6474  0.1304 -0.0373
  425WAT     H1 1359   1.195   1.144   1.570  0.2841 -1.6617 -1.8160
  425WAT     H2 1360   1.167   1.292   1.558  0.6814 -1.0299  2.9020
  426WAT      O 1361   3.662   0.892   2.533  0.1680 -0.0066  0.0070
  426WAT     H1 1362   3.757   0.897   2.523  0.2537  1.8070  1.2844
  426WAT     H2 1363   3.646   0.801   2.559  1.4875 -0.4422 -0.6027
  427WAT      O 1364   0.652   1.401   0.864 -0.1412  0.2381  0.4081
  427WAT     H1 1365   0.575   1.456   0.849 -0.4912 -0.1888  0.6361
  427WAT     H2 1366   0.698   1.401   0.780 -1.1153 -0.6213 -0.1529
  428WAT      O 1367   1.686   3.469   1.532 -0.1834  0.3172 -0.2973
  428WAT     H1 1368   1.751   3.523   1.488  1.5020 -0.6106  0.9360
  428WAT     H2 1369   1.654   3.410   1.464  0.5929  0.4908 -0.8269
  429WAT      O 1370   1.083   1.064   1.837  0.6481  0.3792  0.3363
  429WAT     H1 1371   1.048   1.061   1.926  0.5766 -1.1098  0.2862
  429WAT     H2 1372   1.178   1.064   1.849  0.6372  0.4278  0.4229
  430WAT      O 1373   0.104   3.200   3.238  0.3378 -0.0786 -0.2458
  430WAT     H1 1374   0.027   3.251   3.213 -1.3630 -2.1140  0.5510
  430WAT     H2 1375   0.157   3.196   3.158 -0.9516  0.4273 -1.1535
  431WAT      O 1376   0.482   1.349   1.209  0.3355  0.4212  0.3734
  431WAT     H1 1377   0.557   1.409   1.214  0.3180  0.3582  2.4766
  431WAT     H2 1378   0.507   1.284   1.144  2.7049 -0.2949  1.8560
  432WAT      O 1379   3.086   1.994   2.224 -0.1755  0.5246  0.1927
  432WAT     H1 1380   3.063   1.933   2.153  1.9622 -0.6612  0.4197
  432WAT     H2 1381   3.173   2.026   2.200 -0.2911  1.7144  1.2728
  433WAT      O 1382   0.040   0.144   1.567  0.1702 -0.9554  0.3384
  433WAT     H1 1383   0.123   0.176   1.532 -0.0129  1.4129  1.8518
  433WAT     H2 1384   0.062   0.115   1.656 -0.8425  1.3916  1.4368
  434WAT      O 1385   0.419   3.241   2.560  0.4293  0.3808  0.4965
  434WAT     H1 1386   0.343   3.294   2.538  1.1566  1.4008  0.3493
  434WAT     H2 1387   0.457   3.215   2.476 -0.5958 -1.4501  0.5351
  435WAT      O 1388   1.015   1.932   2.895 -0.2361  0.3650 -0.1971
  435WAT     H1 1389   1.076   1.859   2.901 -2.1761 -1.3653 -0.6281
  435WAT     H2 1390   0.929   1.892   2.881 -1.6772  2.6445  1.3864
  436WAT      O 1391   2.785   2.590   2.640 -0.2872 -0.5414  0.0325
  436WAT     H1 1392   2.818   2.577   2.729 -0.6600 -0.3160  0.2030
  436WAT     H2 1393   2.831   2.523   2.588  1.4717  0.6102 -0.0004
  437WAT      O 1394   0.051   0.579   3.634 -0.4346 -0.1325 -0.4032
  437WAT     H1 1395   0.034   0.485   3.639 -1.3078  0.0307 -0.2745
  437WAT     H2 1396   0.054   0.598   3.540 -0.9929 -0.1592 -0.4285
  438WAT      O 1397   3.578   2.849   1.365  0.1982 -0.8306 -0.1646
  438WAT     H1 1398   3.610   2.848   1.275  2.9835 -1.0390  0.7259
  438WAT     H2 1399   3.576   2.942   1.388  0.9506 -0.8517  0.0070
  439WAT      O 1400   0.262   1.847   1.048 -0.0201  0.1679  0.3991
  439WAT     H1 1401   0.173   1.829   1.081  0.7967 -1.7932  1.7439
  439WAT     H2 1402   0.303   1.760   1.043  1.4563  0.9125 -1.3636
  440WAT      O 1403   3.041   0.770   3.235  0.3370  0.0022 -0.4664
  440WAT     H1 1404   3.062   0.736   3.148  0.0399 -0.8422 -0.2189
  440WAT     H2 1405   3.018   0.861   3.220 -1.1401 -0.5051 -1.4866
  441WAT      O 1406   0.668   2.881   0.588  0.1033 -0.3070  0.1867
  441WAT     H1 1407   0.637   2.879   0.498 -1.8773 -1.8394  0.8379
  441WAT     H2 1408   0.648   2.969   0.618 -1.1196 -0.4014 -0.2860
  442WAT      O 1409   2.139   2.566   1.193 -0.7025 -0.3786 -0.0278
  442WAT     H1 1410   2.217   2.622   1.195  0.9474 -2.5232  0.7832
  442WAT     H2 1411   2.115   2.561   1.101 -0.0803  0.5934 -0.2578
  443WAT      O 1412   3.663   3.014   2.009 -0.6180  0.0009  0.5702
  443WAT     H1 1413   3.674   3.100   2.051  0.0914  0.8715 -1.2791
  443WAT     H2 1414   3.586   2.977   2.051 -1.3815  1.8578  0.9377
  444WAT      O 1415   3.262   3.202   0.595 -0.4165  0.2512 -0.4713
  444WAT     H1 1416   3.345   3.236   0.560 -0.4562  0.0327 -0.7833
  444WAT     H2 1417   3.195   3.259   0.556 -0.6551 -1.3378 -2.5849
  445WAT      O 1418   0.349   2.658   3.926 -0.4298 -0.5072 -0.0120
  445WAT     H1 1419   0.267   2.650   3.876 -0.4111 -1.0037  0.0274
  445WAT     H2 1420   0.362   2.571   3.963  0.3450 -0.5471 -0.3645
  446WAT      O 1421   0.673   0.312   0.097 -0.1697 -0.1695  0.2707
  446WAT     H1 1422   0.702   0.236   0.047  1.7091 -1.0317  2.4686
  446WAT     H2 1423   0.753   0.360   0.117 -0.9806  0.7570  1.4349
  447WAT      O 1424   0.548   0.120   3.275  0.0654 -0.7966 -0.4145
  447WAT     H1 1425   0.466   0.128   3.225  0.4527 -1.6906 -1.2258
  447WAT     H2 1426   0.604   0.189   3.238 -0.7291  0.7007  1.0438
  448WAT      O 1427   3.113   2.002   1.491 -0.3682  0.4886 -0.0568
  448WAT     H1 1428   3.028   1.958   1.488  0.1074 -0.4918  0.1646
  448WAT     H2 1429   3.174   1.936   1.457  0.2897  1.2171 -0.3177
  449WAT      O 1430   3.529   1.288   2.316  0.1964 -0.7042  0.1701
  449WAT     H1 1431   3.444   1.329   2.298  0.2312 -0.3851  0.7144
  449WAT     H2 1432   3.593   1.344   2.272  0.0725 -1.4322 -1.0030
  450WAT      O 1433   1.923   3.432   3.482 -0.4332 -0.4179  1.2789
  450WAT     H1 1434   1.950   3.520   3.507 -0.4433 -0.3980  1.2209
  450WAT     H2 1435   1.888   3.394   3.562 -1.5415  0.0473  1.0322
  451WAT      O 1436   0.638   2.078   0.334  0.5091 -0.0457  0.3508
  451WAT     H1 1437   0.545   2.101   0.340  0.4447 -0.5563  1.7625
  451WAT     H2 1438   0.645   1.995   0.381  1.7288  0.1319  0.5089
  452WAT      O 1439   2.500   1.671   0.688 -0.3417  0.6712 -0.2312
  452WAT     H1 1440   2.556   1.727   0.634  2.9978  0.8646  2.9742
  452WAT     H2 1441   2.454   1.731   0.746 -1.0334  0.3035 -0.3810
  453WAT      O 1442   2.780   1.675   2.058  0.0231  0.6963 -0.3695
  453WAT     H1 1443   2.745   1.587   2.051 -0.0991  0.6328  0.7978
  453WAT     H2 1444   2.747   1.720   1.980 -0.0684 -0.2289 -0.8787
  454WAT      O 1445   2.809   0.339   1.330  0.6987 -0.1536  0.1543
  454WAT     H1 1446   2.790   0.432   1.319  0.4886 -0.3178 -0.9897
  454WAT     H2 1447   2.900   0.330   1.304  0.6837 -0.2951  0.1509
  455WAT      O 1448   2.587   2.758   2.576  0.4041 -0.4587  0.2641
  455WAT     H1 1449   2.660   2.701   2.598  0.6102 -0.7867 -1.1841
  455WAT     H2 1450   2.585   2.759   2.481 -0.3711  0.9767  0.2619
  456WAT      O 1451   2.648   1.975   0.278  0.0794  0.4876 -0.4543
  456WAT     H1 1452   2.626   2.019   0.195  0.5238 -0.8590 -1.3241
  456WAT     H2 1453   2.564   1.968   0.324 -0.2806  0.7686 -1.0444
  457WAT      O 1454   2.269   3.963   1.022  0.0576  0.4618  0.0531
  457WAT     H1 1455   2.351   3.914   1.020 -0.2555 -0.0434 -0.5832
  457WAT     H2 1456   2.293   4.051   0.992  0.2301  0.1132 -0.8389
  458WAT      O 1457   3.339   3.633   3.160  0.2424 -0.5096 -0.0896
  458WAT     H1 1458   3.406   3.674   3.105 -0.7942 -0.1033 -1.0948
  458WAT     H2 1459   3.256   3.666   3.126 -0.4716 -0.7544  1.3267
  459WAT      O 1460   2.245   0.001   3.656 -0.1187  0.1522  0.0368
  459WAT     H1 1461   2.324  -0.020   3.707 -0.6485 -2.3261  0.0041
  459WAT     H2 1462   2.245  -0.064   3.586 -2.4166 -0.2192  0.3088
  460WAT      O 1463   1.312   0.838   2.962  0.0469  0.2576 -0.4411
  460WAT     H1 1464   1.297   0.857   3.054  0.0196 -1.2939 -0.1025
  460WAT     H2 1465   1.337   0.745   2.960 -2.8728 -0.6258 -2.2438
  461WAT      O 1466   2.746   2.915   2.765  0.2799 -0.9031 -0.0077
  461WAT     H1 1467   2.653   2.935   2.780  0.6171 -0.4762  1.6951
  461WAT     H2 1468   2.746   2.856   2.690 -1.4011 -1.2715  0.2499
  462WAT      O 1469   3.533   3.055   0.018  0.0245  0.9658 -0.0315
  462WAT     H1 1470   3.460   3.060  -0.044  0.4893  0.0707 -0.6662
  462WAT     H2 1471   3.595   2.995  -0.023 -0.0028 -0.2915  1.6711
  463WAT      O 1472   2.414   1.950   0.386 -0.2198 -0.4645  0.1749
  463WAT     H1 1473   2.371   1.924   0.305  1.8290 -2.9574 -0.2568
  463WAT     H2 1474   2.367   1.903   0.455 -0.3894 -0.3477  0.1396
  464WAT      O 1475   0.805   3.552   1.439 -0.5743  0.4378 -0.4137
  464WAT     H1 1476   0.745   3.484   1.409 -1.0212  1.0291 -0.8665
  464WAT     H2 1477   0.776   3.632   1.395  0.6892  0.6906 -0.8302
  465WAT      O 1478   0.323   3.001   0.839 -0.4437  0.2120  0.3262
  465WAT     H1 1479   0.269   3.080   0.839 -1.9095 -0.6468  3.2600
  465WAT     H2 1480   0.262   2.929   0.828  0.0001 -0.7559  3.2760
  466WAT      O 1481   3.368   0.550   1.066 -0.1849  0.2437 -0.4015
  466WAT     H1 1482   3.378   0.640   1.035  0.1825  0.7573  1.0933
  466WAT     H2 1483   3.331   0.560   1.154  2.5471 -0.8762  0.9750
  467WAT      O 1484   3.379   0.460   3.649 -0.1824  0.1635 -0.7685
  467WAT     H1 1485   3.364   0.510   3.729  0.6127 -0.0632 -0.4696
  467WAT     H2 1486   3.301   0.476   3.596 -0.8404  0.1108  0.1561
  468WAT      O 1487   0.699   0.428   1.768 -0.1499 -0.3212  0.3731
  468WAT     H1 1488   0.690   0.522   1.750 -1.0099 -0.1270  1.6347
  468WAT     H2 1489   0.700   0.387   1.682  0.0194  0.8313 -0.1985
  469WAT      O 1490   1.787   0.424   1.458  0.3909  0.4312 -0.4406
  469WAT     H1 1491   1.768   0.343   1.506 -2.1419  2.5278  2.4206
  469WAT     H2 1492   1.883   0.425   1.451  0.5398 -2.6862 -0.5368
  470WAT      O 1493   3.103   2.173   3.317 -0.5210  0.0943 -0.3270
  470WAT     H1 1494   3.153   2.128   3.248 -0.8716  3.0162 -2.7110
  470WAT     H2 1495   3.169   2.217   3.370 -0.3029  1.6045 -1.7370
  471WAT      O 1496   3.617   2.210   0.653 -0.4503 -0.3306 -0.1066
  471WAT     H1 1497   3.584   2.160   0.728 -1.0899  0.4427  0.1394
  471WAT     H2 1498   3.549   2.274   0.636  1.1052  1.6507  0.7239
  472WAT      O 1499   0.382   1.790   3.493  0.2411  0.1213 -0.7499
  472WAT     H1 1500   0.385   1.739   3.574  0.4335  0.8438 -0.2924
  472WAT     H2 1501   0.310   1.752   3.443 -0.3761  0.1496  0.0909
  473WAT      O 1502   2.183   3.095   3.840 -0.9705  0.0438  0.1993
  473WAT     H1 1503   2.248   3.161   3.863 -1.4698  0.7388 -0.3495
  473WAT     H2 1504   2.215   3.058   3.758 -1.9884  1.4175 -0.8624
  474WAT      O 1505   2.495   2.847   3.368 -0.3032 -0.6248  0.1409
  474WAT     H1 1506   2.413   2.840   3.320 -0.5742 -1.7415  0.7510
  474WAT     H2 1507   2.560   2.868   3.300 -1.2858  1.8130 -0.1553
  475WAT      O 1508   1.619   3.296   2.058  0.0132  0.1267 -0.8399
  475WAT     H1 1509   1.600   3.311   1.966  0.5541  0.2464 -0.9349
  475WAT     H2 1510   1.714   3.298   2.064 -0.0358  0.8993 -0.1445
  476WAT      O 1511   1.084   3.521   1.451 -0.4024  0.6337  0.4555
  476WAT     H1 1512   1.112   3.521   1.543 -0.5958 -1.6411  0.5713
  476WAT     H2 1513   0.990   3.539   1.455 -0.7544 -1.1031  0.8955
  477WAT      O 1514   1.667   2.834   3.478  0.2980 -0.1668  0.4386
  477WAT     H1 1515   1.573   2.844   3.486  0.4063  0.4261  1.0452
  477WAT     H2 1516   1.679   2.778   3.401 -0.5776 -1.2388  1.0635
  478WAT      O 1517   1.188   0.367   1.194 -0.7795 -0.2619 -0.0768
  478WAT     H1 1518   1.230   0.386   1.110  1.0610 -1.8545  0.3919
  478WAT     H2 1519   1.210   0.441   1.250  0.3267 -0.4622 -0.2326
  479WAT      O 1520   0.566   3.913   3.751 -0.1101  0.4842  0.0105
  479WAT     H1 1521   0.639   3.917   3.689 -1.2620  1.9462 -1.3230
  479WAT     H2 1522   0.608   3.902   3.837  1.5702 -0.5190 -0.8840
  480WAT      O 1523   0.026   0.075   3.376 -0.1677  0.1412 -0.0907
  480WAT     H1 1524   0.088   0.005   3.391 -1.6717 -1.4486 -0.8943
  480WAT     H2 1525  -0.017   0.089   3.461 -1.6914 -1.8219 -0.4691
  481WAT      O 1526   3.686   3.742   2.709  0.3073  0.3709  0.1518
  481WAT     H1 1527   3.650   3.694   2.635  1.7142 -0.5136  0.0060
  481WAT     H2 1528   3.659   3.692   2.786 -1.1221  1.2694  0.2784
  482WAT      O 1529   3.369   2.927   1.024  0.4507  0.1689 -0.4010
  482WAT     H1 1530   3.451   2.939   0.976 -0.3159  0.0592 -1.7727
  482WAT     H2 1531   3.302   2.963   0.966 -0.7403 -1.7438 -0.2855
  483WAT      O 1532   1.698   1.647   3.680 -0.1526 -0.1262  0.0337
  483WAT     H1 1533   1.756   1.582   3.718  0.9747  1.5212  1.2819
  483WAT     H2 1534   1.668   1.699   3.755 -0.6295  1.0971 -0.9642
  484WAT      O 1535   0.821   3.341   1.768 -0.0185  0.2645 -0.3359
  484WAT     H1 1536   0.826   3.335   1.672 -0.8920  1.4645 -0.4817
  484WAT     H2 1537   0.763   3.269   1.793  1.1077 -0.7605 -0.5773
  485WAT      O 1538   2.089   4.062   1.876 -0.4499 -0.2603  0.5462
  485WAT     H1 1539   2.010   4.035   1.923 -0.6912  0.8754  0.8314
  485WAT     H2 1540   2.150   3.990   1.889 -1.6231 -1.4103 -0.1615
  486WAT      O 1541   3.653   3.866   1.678  0.2311  0.3275 -0.1870
  486WAT     H1 1542   3.677   3.861   1.771  0.4774  0.1603 -0.2586
  486WAT     H2 1543   3.586   3.935   1.674  0.7144  0.8190  0.0110
  487WAT      O 1544   2.554   3.910   2.811 -0.1816 -0.1095  0.3395
  487WAT     H1 1545   2.518   3.848   2.748 -0.2163  0.7947 -0.5713
  487WAT     H2 1546   2.570   3.989   2.759 -2.0243  1.3482  1.8292
  488WAT      O 1547   1.391   0.407   1.690  0.1714 -0.2331  0.0746
  488WAT     H1 1548   1.452   0.426   1.762 -0.2354 -1.9434  0.9193
  488WAT     H2 1549   1.438   0.344   1.635  0.3426  0.8042 -1.0070
  489WAT      O 1550   0.265   3.619   3.427  0.7258 -0.3631  0.2276
  489WAT     H1 1551   0.296   3.668   3.503 -0.2134  0.6829 -0.0374
  489WAT     H2 1552   0.174   3.646   3.417  0.6596 -0.9605 -0.9002
  490WAT      O 1553   0.270   3.723   0.243 -0.4712 -0.2612 -0.2644
  490WAT     H1 1554   0.308   3.810   0.254 -0.2180 -0.4636  0.5958
  490WAT     H2 1555   0.332   3.664   0.286  0.4066 -1.1552 -2.6214
  491WAT      O 1556   2.128   1.151   2.032  0.7015 -0.0078  0.3412
  491WAT     H1 1557   2.104   1.188   1.947  1.0563  1.5486  0.8901
  491WAT     H2 1558   2.143   1.058   2.014 -0.5272  0.0173 -1.0244
  492WAT      O 1559   2.861   0.860   0.149 -0.2517 -0.0418 -0.1050
  492WAT     H1 1560   2.911   0.880   0.070 -1.9660  1.1679 -0.9228
  492WAT     H2 1561   2.909   0.905   0.219 -0.0304  0.8784 -0.8235
  493WAT      O 1562   3.205   0.823   0.739  0.1068  0.8705 -0.3172
  493WAT     H1 1563   3.132   0.773   0.774  0.5007  0.1295 -0.5377
  493WAT     H2 1564   3.269   0.825   0.811 -0.0430  1.3404 -0.1951
  494WAT      O 1565   1.436   1.317   3.109 -0.7288  0.0835 -0.1399
  494WAT     H1 1566   1.346   1.312   3.077 -1.4334  0.8481  1.6021
  494WAT     H2 1567   1.428   1.338   3.202  1.2290 -1.1798  0.3928
  495WAT      O 1568   1.545   1.032   0.312 -0.4117  0.4903 -0.6647
  495WAT     H1 1569   1.631   1.017   0.352 -0.0949 -0.5938 -1.6929
  495WAT     H2 1570   1.489   1.058   0.385 -0.1621 -2.6078  0.8016
  496WAT      O 1571   0.715   3.417   3.362 -0.1375 -0.1162 -0.1408
  496WAT     H1 1572   0.680   3.466   3.288  0.1497  0.5106  0.1276
  496WAT     H2 1573   0.637   3.391   3.412 -0.2664  1.4779  0.5852
  497WAT      O 1574   0.188   4.041   2.216  0.3260  0.1194 -0.2984
  497WAT     H1 1575   0.203   4.128   2.253 -0.7611  0.5633 -0.8427
  497WAT     H2 1576   0.261   3.988   2.248 -0.3426  0.5595  2.2046
  498WAT      O 1577   0.753   2.995   0.310  0.6391  0.1384  0.1719
  498WAT     H1 1578   0.711   3.065   0.260  0.3437 -0.0818  0.1074
  498WAT     H2 1579   0.817   3.039   0.365 -0.4714  0.5993  1.1011
  499WAT      O 1580   1.478   3.723   3.611 -0.6860 -0.0509  0.1443
  499WAT     H1 1581   1.448   3.813   3.618 -0.7330 -0.0236 -0.3891
  499WAT     H2 1582   1.457   3.697   3.521  1.6198  0.2233 -0.5290
  500WAT      O 1583   2.717   3.660   2.599 -0.4403  0.0590 -0.0748
  500WAT     H1 1584   2.717   3.596   2.528 -0.6143  0.9730 -0.9369
  500WAT     H2 1585   2.685   3.613   2.675  1.4428 -1.4443 -0.1427
  501WAT      O 1586   3.011   0.991   2.109 -0.6722 -0.0951 -0.2136
  501WAT     H1 1587   2.921   1.019   2.090 -0.2102  2.3454  0.8044
  501WAT     H2 1588   3.054   0.988   2.024 -1.3733 -0.0367 -0.5783
  502WAT      O 1589   1.543   2.766   0.648 -0.1848 -0.0493  0.3985
  502WAT     H1 1590   1.566   2.673   0.642 -1.0073 -0.2946  0.9803
  502WAT     H2 1591   1.452   2.770   0.621 -0.5577  0.3901  1.6840
  503WAT      O 1592   0.153   1.456   0.599  0.8515 -0.4262 -0.0339
  503WAT     H1 1593   0.128   1.364   0.612 -1.2411  0.2849  1.5626
  503WAT     H2 1594   0.116   1.478   0.514 -0.1545 -0.6279  0.3331
  504WAT      O 1595   3.555   0.131   1.160  0.4723  0.3185 -0.4967
  504WAT     H1 1596   3.592   0.219   1.156 -1.4160  1.1286 -1.8824
  504WAT     H2 1597   3.573   0.093   1.074 -0.7799  0.2773 -0.7563
  505WAT      O 1598   2.774   0.745   0.773  0.0211  0.1003  0.4529
  505WAT     H1 1599   2.830   0.792   0.710  0.9050  0.4665  1.4856
  505WAT     H2 1600   2.755   0.810   0.841 -0.0981 -0.5786  1.0739
  506WAT      O 1601   0.692   2.565   2.421 -0.2298  0.3027 -0.0907
  506WAT     H1 1602   0.769   2.516   2.449  0.5994  1.0664 -0.9724
  506WAT     H2 1603   0.619   2.518   2.461  0.5620 -1.3653 -0.5132
  507WAT      O 1604   0.019   2.043   0.462  0.2737 -0.0889  0.0253
  507WAT     H1 1605  -0.010   1.957   0.491 -0.0427  0.1615  0.4547
  507WAT     H2 1606  -0.033   2.105   0.513  1.3725  0.3689  0.6090
  508WAT      O 1607   0.258   2.745   3.091 -0.1518 -0.2283 -0.1541
  508WAT     H1 1608   0.329   2.781   3.038  0.4164  0.6928  1.1772
  508WAT     H2 1609   0.293   2.663   3.125  0.9551  0.9557  1.7689
  509WAT      O 1610   3.218   2.269   1.650 -0.3430 -0.4758  0.2225
  509WAT     H1 1611   3.202   2.176   1.665 -1.8858 -0.3803 -0.6259
  509WAT     H2 1612   3.217   2.278   1.554  0.7818  0.2717  0.2593
  510WAT      O 1613   2.716   2.957   2.319 -0.1918 -0.1565  0.5522
  510WAT     H1 1614   2.769   3.033   2.295  0.5842 -1.0789 -0.7673
  510WAT     H2 1615   2.772   2.907   2.379 -0.2606 -0.2454  0.5419
  511WAT      O 1616   2.413   2.091   3.026  0.1926 -0.1121  0.0009
  511WAT     H1 1617   2.382   2.146   3.098  0.9212 -0.9743  1.0086
  511WAT     H2 1618   2.375   2.004   3.044 -0.3658 -0.1357 -1.1749
  512WAT      O 1619   2.279   2.960   3.609 -0.3407  0.0866  0.3231
  512WAT     H1 1620   2.245   2.938   3.522 -0.4722  0.9208  0.1488
  512WAT     H2 1621   2.280   2.877   3.657 -1.8601 -0.1204  0.0665
  513WAT      O 1622   3.625   2.465   1.680  0.3776 -0.4599  0.2531
  513WAT     H1 1623   3.669   2.548   1.700  0.2860 -0.3723  0.0982
  513WAT     H2 1624   3.602   2.473   1.587 -0.2773 -0.3564  0.4223
  514WAT      O 1625   1.054   2.612   2.867 -0.4782 -0.0260  0.3196
  514WAT     H1 1626   1.079   2.671   2.795 -0.7117 -0.8244 -0.4344
  514WAT     H2 1627   1.110   2.535   2.855 -1.8149 -0.9601 -0.1507
  515WAT      O 1628   0.886   3.968   0.478 -0.3266  0.0154  0.3127
  515WAT     H1 1629   0.873   3.996   0.569 -0.3409 -1.0108  0.6330
  515WAT     H2 1630   0.799   3.974   0.439 -0.8076 -1.7544  1.0157
  516WAT      O 1631   1.642   0.182   3.954 -0.0366 -0.0287  0.0944
  516WAT     H1 1632   1.589   0.216   3.881 -0.0344  0.7803  0.4579
  516WAT     H2 1633   1.694   0.258   3.982 -0.9319  0.0118  1.7381
  517WAT      O 1634   2.946   2.198   3.955  0.0032 -0.5576  0.5166
  517WAT     H1 1635   2.874   2.137   3.971 -0.4509  0.0208  0.6686
  517WAT     H2 1636   2.907   2.285   3.964  0.5344 -0.2363 -0.1957
  518WAT      O 1637   1.885   1.414   2.184  0.1131 -0.1903 -0.0608
  518WAT     H1 1638   1.837   1.457   2.255 -0.0491 -2.9131  1.6238
  518WAT     H2 1639   1.830   1.427   2.107 -1.2785  0.2466  0.9590
  519WAT      O 1640   0.289   0.855   3.253 -0.2718 -0.0692  0.3055
  519WAT     H1 1641   0.197   0.836   3.234 -0.0458 -0.0779 -0.8502
  519WAT     H2 1642   0.299   0.948   3.230 -0.8292  0.9930  3.7885
  520WAT      O 1643   2.839   1.605   2.788  0.2351 -0.1501  0.3313
  520WAT     H1 1644   2.855   1.685   2.838 -0.2448  1.0041 -1.2672
  520WAT     H2 1645   2.747   1.611   2.762  0.8496  0.1610 -2.0276
  521WAT      O 1646   0.941   1.918   1.389  0.4446  0.1120  0.1674
  521WAT     H1 1647   0.978   1.877   1.311 -1.4127 -0.2069 -0.6008
  521WAT     H2 1648   0.943   1.849   1.455  0.2560 -0.2249 -0.1744
  522WAT      O 1649   1.760   2.302   0.895 -0.3710 -0.0748  0.1559
  522WAT     H1 1650   1.672   2.282   0.862 -0.2566 -3.5062  1.5054
  522WAT     H2 1651   1.746   2.324   0.987  0.0582  1.6404 -0.1449
  523WAT      O 1652   0.276   0.325   3.393 -0.2713 -0.0036  0.3075
  523WAT     H1 1653   0.200   0.337   3.336  0.1047  0.4290 -0.1081
  523WAT     H2 1654   0.258   0.244   3.441 -1.5181  0.6639  1.0271
  524WAT      O 1655   1.290   3.475   0.209  0.5923 -0.1416 -0.2633
  524WAT     H1 1656   1.274   3.564   0.177 -1.3675 -0.5552 -0.5921
  524WAT     H2 1657   1.346   3.436   0.143  0.1260  0.3672 -0.9816
  525WAT      O 1658   2.468   3.791   1.081 -0.2534 -0.2505  0.1283
  525WAT     H1 1659   2.424   3.707   1.085  1.4564 -1.2013 -0.0460
  525WAT     H2 1660   2.495   3.800   0.989 -1.2743  0.9805 -0.0855
  526WAT      O 1661   0.016   3.480   1.247  0.1841 -0.0374 -0.7403
  526WAT     H1 1662   0.013   3.564   1.201 -0.8480  0.1408 -0.3559
  526WAT     H2 1663  -0.054   3.485   1.312  1.6127 -0.2664  0.9064
  527WAT      O 1664   0.543   2.822   3.261  0.3625 -0.4570  0.3456
  527WAT     H1 1665   0.530   2.785   3.174  0.6664  0.4922 -0.1177
  527WAT     H2 1666   0.530   2.748   3.321 -0.1224 -1.0601 -0.4840
  528WAT      O 1667   1.197   3.924   1.829  0.0030  0.0367  0.0211
  528WAT     H1 1668   1.186   4.017   1.850 -0.0159 -0.0796  0.5330
  528WAT     H2 1669   1.119   3.882   1.865 -0.7079  0.0095 -1.4724
  529WAT      O 1670   1.810   1.622   3.374 -0.2676 -0.4391 -0.5815
  529WAT     H1 1671   1.782   1.531   3.381 -0.0133 -0.6052 -1.5712
  529WAT     H2 1672   1.784   1.662   3.457 -3.1538 -0.6491 -1.2743
  530WAT      O 1673   0.178   3.897   1.532  0.2538 -0.0361  0.1451
  530WAT     H1 1674   0.115   3.899   1.603  0.7673 -2.2453  0.7459
  530WAT     H2 1675   0.173   3.808   1.498  2.8844 -0.2406  0.0972
  531WAT      O 1676   2.757   1.409   1.595  0.7989  0.5262 -0.3880
  531WAT     H1 1677   2.695   1.341   1.570 -0.6223  2.3312 -2.1698
  531WAT     H2 1678   2.798   1.435   1.513  0.7201  2.3162  0.0946
  532WAT      O 1679   1.127   2.031   1.977 -0.0309  0.6026  0.2637
  532WAT     H1 1680   1.038   2.037   1.943 -0.1505  1.6978  0.7349
  532WAT     H2 1681   1.177   1.992   1.905 -0.5761  1.4712 -0.6010
  533WAT      O 1682   0.252   3.270   2.964  0.1236 -0.0129 -0.5195
  533WAT     H1 1683   0.216   3.211   2.898 -1.7313  0.4870 -0.0205
  533WAT     H2 1684   0.218   3.356   2.940  0.7023  0.4360  0.2228
  534WAT      O 1685   0.475   3.350   1.701  0.1696  0.1825  0.0076
  534WAT     H1 1686   0.517   3.364   1.616 -0.0061  1.8178  0.1576
  534WAT     H2 1687   0.438   3.262   1.696  3.2583 -1.2390 -0.2688
  535WAT      O 1688   0.361   2.555   2.611  0.5985 -0.5099  0.2724
  535WAT     H1 1689   0.404   2.493   2.670 -0.3338 -0.6931  0.7809
  535WAT     H2 1690   0.282   2.581   2.658  1.1287  1.3481  0.2253
  536WAT      O 1691   2.048   3.131   1.436  0.3325 -0.6115  0.4527
  536WAT     H1 1692   1.989   3.077   1.384  1.1540 -0.6781 -0.4393
  536WAT     H2 1693   2.014   3.220   1.428  1.1096 -0.4266 -1.2056
  537WAT      O 1694   0.104   0.770   1.259 -0.4362  0.3397  0.1280
  537WAT     H1 1695   0.162   0.845   1.269  0.0812  0.5252 -3.2242
  537WAT     H2 1696   0.115   0.743   1.168 -0.2745 -4.1424  1.2554
  538WAT      O 1697   0.826   2.249   3.854 -0.3592 -0.7466  0.3917
  538WAT     H1 1698   0.801   2.219   3.942 -0.2138  3.0538  1.9539
  538WAT     H2 1699   0.917   2.222   3.844 -0.5416 -1.7036  1.1453
  539WAT      O 1700   1.244   3.139   1.497 -0.4821 -0.4664 -0.1184
  539WAT     H1 1701   1.326   3.189   1.493 -1.6831  1.5301 -1.1314
  539WAT     H2 1702   1.183   3.189   1.443 -1.7373 -3.1740 -1.3770
  540WAT      O 1703   1.178   3.719   3.763 -0.4933  0.1853  0.5684
  540WAT     H1 1704   1.193   3.630   3.730  0.5368 -0.1228  1.7960
  540WAT     H2 1705   1.227   3.775   3.702  3.0409 -0.5291  2.4738
  541WAT      O 1706   1.713   0.775   0.486 -0.0241  0.7254 -0.1199
  541WAT     H1 1707   1.717   0.774   0.390  2.5066 -2.3657 -0.1602
  541WAT     H2 1708   1.802   0.797   0.513 -0.7195  1.6409  1.5650
  542WAT      O 1709   3.313   1.952   3.759 -0.3908 -0.3059  0.4165
  542WAT     H1 1710   3.349   1.987   3.841 -1.0607  0.0665  0.5527
  542WAT     H2 1711   3.371   1.987   3.691 -1.0265  1.0611  0.5480
  543WAT      O 1712   1.111   0.370   2.518 -0.0521 -0.1550  0.0132
  543WAT     H1 1713   1.016   0.365   2.530 -0.0644 -1.4419 -0.4424
  543WAT     H2 1714   1.137   0.280   2.497  1.3880  0.0150  0.9478
  544WAT      O 1715   3.150   3.087   3.216 -0.8590  0.6086  0.2678
  544WAT     H1 1716   3.061   3.112   3.241 -1.2041 -1.6193  1.5817
  544WAT     H2 1717   3.138   3.009   3.162  0.2614  0.9929 -0.5617
  545WAT      O 1718   3.539   0.050   1.972  0.0492 -0.3153 -0.6768
  545WAT     H1 1719   3.463   0.108   1.983 -0.8978 -1.2018 -2.2239
  545WAT     H2 1720   3.511  -0.034   2.008  0.0075 -0.8391 -1.8714
  546WAT      O 1721   0.026   1.386   3.890 -0.6967  0.4480 -0.3097
  546WAT     H1 1722  -0.034   1.313   3.906  0.4017 -0.2625  0.6923
  546WAT     H2 1723  -0.000   1.452   3.953 -0.7822  0.3687 -0.2618
  547WAT      O 1724   3.505   2.827   3.252  0.1044 -0.7714 -0.3367
  547WAT     H1 1725   3.601   2.831   3.257  0.0760 -0.5493  0.0097
  547WAT     H2 1726   3.478   2.917   3.238  0.0055 -0.9742 -1.6032
  548WAT      O 1727   3.051   2.178   0.589 -0.1495  0.1174  0.0372
  548WAT     H1 1728   3.107   2.135   0.525 -0.2996 -0.0083 -0.0111
  548WAT     H2 1729   3.003   2.244   0.539 -0.2822  0.0050  0.0134
  549WAT      O 1730   0.595   0.194   0.359 -0.0012  0.3119  0.3830
  549WAT     H1 1731   0.509   0.226   0.387 -0.4277  0.6863 -1.2611
  549WAT     H2 1732   0.602   0.221   0.267  0.6585 -2.1948 -0.3856
  550WAT      O 1733   3.524   2.253   3.243  0.0353 -0.7853  0.3055
  550WAT     H1 1734   3.563   2.289   3.322 -1.6890  0.7259  0.5109
  550WAT     H2 1735   3.564   2.303   3.172 -2.1276  1.4633  0.5727
  551WAT      O 1736   2.806   1.694   0.468  0.1322 -0.7434 -0.2041
  551WAT     H1 1737   2.824   1.701   0.375 -1.3908 -1.8617 -0.6138
  551WAT     H2 1738   2.835   1.605   0.492  0.5912 -0.4387  0.4260
  552WAT      O 1739   2.372   0.217   0.604  0.4759 -0.2648  0.3700
  552WAT     H1 1740   2.435   0.284   0.575  0.1804 -0.2291 -0.2230
  552WAT     H2 1741   2.425   0.139   0.621  0.9247  0.3261  1.8255
  553WAT      O 1742   3.380   1.805   1.660  0.2711  0.4161  0.0409
  553WAT     H1 1743   3.339   1.804   1.574  0.3974 -3.0355 -0.0960
  553WAT     H2 1744   3.469   1.836   1.643  0.2853 -0.1946 -1.0814
  554WAT      O 1745   1.124   2.947   1.351 -0.5123  0.7605 -0.1958
  554WAT     H1 1746   1.040   2.991   1.336  0.0259  1.8345 -0.1610
  554WAT     H2 1747   1.184   3.017   1.378 -0.1542 -0.3179  2.0523
  555WAT      O 1748   1.590   0.094   3.185  0.4774  0.1136 -0.9473
  555WAT     H1 1749   1.528   0.053   3.245 -0.0537  1.0607 -0.8268
  555WAT     H2 1750   1.632   0.021   3.140 -1.9357 -0.5491 -2.2778
  556WAT      O 1751   0.976   1.366   3.255 -0.0865  0.6721  0.2384
  556WAT     H1 1752   0.961   1.432   3.188  0.7883  0.9811  0.3261
  556WAT     H2 1753   0.945   1.406   3.336 -0.5529  0.5502  0.1208
  557WAT      O 1754   3.050   0.291   1.228 -0.1615 -0.1153  0.5039
  557WAT     H1 1755   3.039   0.278   1.134 -0.0912 -1.5122  0.6621
  557WAT     H2 1756   3.145   0.285   1.242 -0.2971 -2.0280  0.8995
  558WAT      O 1757   2.158   3.358   3.362 -0.0500 -0.2138 -0.4224
  558WAT     H1 1758   2.078   3.377   3.411  0.4409  0.5213  0.1220
  558WAT     H2 1759   2.216   3.315   3.425  0.5354  0.6215 -0.3592
  559WAT      O 1760   1.991   0.976   2.730  0.1244  0.0646 -0.2092
  559WAT     H1 1761   2.081   0.994   2.705  0.7662  0.1704  1.9609
  559WAT     H2 1762   1.996   0.898   2.786 -1.1691 -0.1253 -0.3194
  560WAT      O 1763   3.076   4.050   3.222 -0.0480  0.2071  0.0497
  560WAT     H1 1764   3.153   4.027   3.170 -0.1397  0.5885 -0.2639
  560WAT     H2 1765   3.064   3.977   3.282 -0.8126 -0.9434 -1.4379
  561WAT      O 1766   3.432   4.095   0.140 -0.1041 -0.4601  0.2653
  561WAT     H1 1767   3.390   4.148   0.208 -0.1175 -0.5292  0.3113
  561WAT     H2 1768   3.360   4.068   0.083 -0.3039 -1.5423  0.9911
  562WAT      O 1769   1.076   2.679   3.706 -0.4108  0.0766  0.0338
  562WAT     H1 1770   1.039   2.744   3.766 -4.8089 -2.6886  0.7182
  562WAT     H2 1771   1.036   2.699   3.621  1.1262  0.3867 -0.6523
  563WAT      O 1772   1.759   0.544   2.636 -0.9782 -0.5899  0.1802
  563WAT     H1 1773   1.769   0.639   2.643 -2.1613 -0.5509  2.7943
  563WAT     H2 1774   1.677   0.532   2.588 -0.4787 -0.3308 -0.7548
  564WAT      O 1775   0.437   0.819   3.487  0.2132  0.3406  0.1782
  564WAT     H1 1776   0.344   0.830   3.503  0.1072  2.9168 -1.5673
  564WAT     H2 1777   0.447   0.830   3.392  2.4004  1.4157  0.4690
  565WAT      O 1778   3.017   1.614   1.584 -0.1853  0.4083  0.2028
  565WAT     H1 1779   2.995   1.698   1.543  0.1046  0.1954 -0.3924
  565WAT     H2 1780   3.041   1.557   1.511 -1.1490 -0.4419  0.5253
  566WAT      O 1781   2.998   1.036   3.215  0.1110  0.1055  0.4504
  566WAT     H1 1782   2.924   1.075   3.167  0.0385 -1.1421 -0.4925
  566WAT     H2 1783   3.075   1.078   3.177 -0.0070 -0.0715  0.0062
  567WAT      O 1784   0.209   2.261   2.861  0.0917 -0.2341 -0.5825
  567WAT     H1 1785   0.181   2.348   2.889  0.5783 -0.2344 -0.0863
  567WAT     H2 1786   0.130   2.221   2.824 -0.3230  0.1262 -0.0957
  568WAT      O 1787   0.786   1.113   1.463 -0.3282 -0.1902  1.0656
  568WAT     H1 1788   0.848   1.144   1.396 -1.4839  0.6294  0.3307
  568WAT     H2 1789   0.829   1.132   1.546  0.6749 -0.2263  0.5689
  569WAT      O 1790   2.282   2.701   3.725 -0.0403 -0.6348 -0.2063
  569WAT     H1 1791   2.321   2.627   3.679  0.7074  0.0248 -0.6636
  569WAT     H2 1792   2.328   2.705   3.809  1.0299  0.2278 -0.8007
  570WAT      O 1793   1.738   1.487   2.420 -0.2897 -0.0110  0.2056
  570WAT     H1 1794   1.745   1.442   2.504  1.0364 -0.1108  0.0640
  570WAT     H2 1795   1.743   1.580   2.442 -0.1684 -0.0311  0.2638
  571WAT      O 1796   0.546   0.794   1.149 -0.9069  0.6615 -0.0094
  571WAT     H1 1797   0.603   0.789   1.226 -0.6427 -0.3412 -0.2533
  571WAT     H2 1798   0.599   0.840   1.084 -1.3898  2.1390  0.6125
  572WAT      O 1799   2.853   3.911   2.539 -0.3048 -0.2268  0.0240
  572WAT     H1 1800   2.831   3.820   2.558  0.0458 -0.3260 -0.0222
  572WAT     H2 1801   2.879   3.947   2.624 -0.4318 -0.1766  0.0402
  573WAT      O 1802   3.448   4.038   0.851  0.0635  0.1235 -0.1215
  573WAT     H1 1803   3.365   3.994   0.870  0.2806 -0.5588 -0.6626
  573WAT     H2 1804   3.434   4.080   0.766  0.0075  0.7036  0.1760
  574WAT      O 1805   1.811   1.153   2.567 -0.5625  0.1121  0.0621
  574WAT     H1 1806   1.776   1.107   2.491 -1.1176 -0.6410  0.7554
  574WAT     H2 1807   1.849   1.084   2.622 -0.6335  0.5767  0.7118
  575WAT      O 1808   1.476   1.644   2.451  0.1623  0.0189  0.0947
  575WAT     H1 1809   1.412   1.676   2.388  1.0713 -0.8839 -1.3416
  575WAT     H2 1810   1.472   1.549   2.445  0.0273 -0.1112  1.6830
  576WAT      O 1811   2.813   2.378   2.970 -0.1900 -0.4532  0.3089
  576WAT     H1 1812   2.780   2.334   3.047  0.3068 -0.3342  0.5949
  576WAT     H2 1813   2.781   2.326   2.896  0.1390 -1.1178  0.6279
  577WAT      O 1814   2.185   0.872   2.002  0.1394  0.1476  0.6246
  577WAT     H1 1815   2.181   0.806   2.071  1.0785 -0.3723  0.1989
  577WAT     H2 1816   2.255   0.843   1.944  0.8222  1.6981  0.6112
  578WAT      O 1817   0.455   3.043   3.422 -0.0349 -0.5136 -0.4537
  578WAT     H1 1818   0.462   2.951   3.394 -2.4220 -1.0839  0.5485
  578WAT     H2 1819   0.448   3.092   3.340  0.8224 -1.2497 -0.9913
  579WAT      O 1820   3.261   1.420   0.024  0.0644  0.6517 -0.1880
  579WAT     H1 1821   3.222   1.455  -0.056 -0.3415  0.2465 -0.1710
  579WAT     H2 1822   3.303   1.495   0.066 -0.4683  1.0372 -0.3430
  580WAT      O 1823   3.411   2.443   1.449  0.0392 -0.1480  0.5223
  580WAT     H1 1824   3.385   2.353   1.429  0.1311  0.2814 -1.9007
  580WAT     H2 1825   3.329   2.492   1.453  0.0110 -0.2517  1.5092
  581WAT      O 1826   0.876   3.968   3.297 -0.5382 -0.1665 -0.3177
  581WAT     H1 1827   0.870   3.873   3.294 -2.1330 -0.1215  0.5311
  581WAT     H2 1828   0.902   3.988   3.387  0.4634  0.1904 -0.6717
  582WAT      O 1829   2.986   2.996   2.885  0.1930 -0.0100 -0.1058
  582WAT     H1 1830   2.903   2.962   2.850  1.0994  0.4019 -2.9314
  582WAT     H2 1831   2.962   3.033   2.970 -2.3863 -0.5546 -0.4934
  583WAT      O 1832   2.104   0.318   2.429  0.2636 -0.0312  0.6033
  583WAT     H1 1833   2.010   0.320   2.444  0.2693 -0.2247  0.6580
  583WAT     H2 1834   2.132   0.408   2.445  0.0892  0.0261  0.5907
  584WAT      O 1835   2.313   2.101   0.992  0.0358  0.3560  0.3923
  584WAT     H1 1836   2.233   2.125   0.945 -0.1237 -1.0890 -0.1309
  584WAT     H2 1837   2.361   2.183   1.000 -1.1895  1.1332  0.1269
  585WAT      O 1838   0.895   2.416   3.133 -0.3180  0.0766  0.4294
  585WAT     H1 1839   0.991   2.416   3.135 -0.3083 -1.0016  0.6241
  585WAT     H2 1840   0.870   2.443   3.221 -0.1860 -0.3677  0.6056
  586WAT      O 1841   0.222   3.126   1.831  0.9198 -0.0270 -1.0193
  586WAT     H1 1842   0.157   3.057   1.850 -0.9340  1.8071 -0.3723
  586WAT     H2 1843   0.219   3.136   1.736 -0.0551  0.2782 -0.9731
  587WAT      O 1844   0.884   2.633   0.964  0.8277  0.3719  0.2337
  587WAT     H1 1845   0.914   2.616   1.053  1.5114  0.1476 -0.0287
  587WAT     H2 1846   0.836   2.554   0.939  0.5546  0.4735  0.4332
  588WAT      O 1847   1.176   0.409   0.618  0.3716 -0.2494 -1.2248
  588WAT     H1 1848   1.242   0.404   0.549  2.5000 -0.3034  0.6792
  588WAT     H2 1849   1.208   0.351   0.686 -1.4977 -0.0016 -0.0517
  589WAT      O 1850   3.115   0.438   2.249  0.2649 -0.1982 -0.1940
  589WAT     H1 1851   3.096   0.459   2.157 -2.3188  0.5970  0.4210
  589WAT     H2 1852   3.046   0.376   2.273 -0.9766  1.8819  1.9786
  590WAT      O 1853   2.327   1.474   1.464  0.5124  0.2492  0.0407
  590WAT     H1 1854   2.318   1.555   1.414 -0.0684  0.7648  0.9403
  590WAT     H2 1855   2.378   1.499   1.541  1.9739 -0.6826 -0.5987
  591WAT      O 1856   0.591   2.593   0.607  0.2494  0.6582  0.1084
  591WAT     H1 1857   0.582   2.681   0.572  0.1143 -0.1312 -1.9487
  591WAT     H2 1858   0.686   2.577   0.609  0.2425  0.5384 -0.3771
  592WAT      O 1859   3.237   1.134   0.426  0.0087  0.1562  0.1155
  592WAT     H1 1860   3.221   1.225   0.402  0.4391  0.2327  0.1043
  592WAT     H2 1861   3.318   1.111   0.380  1.3460  0.5718  2.1316
  593WAT      O 1862   1.595   2.021   2.470  0.2245  0.4866  0.9219
  593WAT     H1 1863   1.588   2.090   2.536  1.7593 -1.7840  3.6872
  593WAT     H2 1864   1.624   2.067   2.391  0.0843  3.1410  2.2836
  594WAT      O 1865   0.052   2.888   3.949  0.1931  0.4104  0.4666
  594WAT     H1 1866   0.063   2.825   4.021 -0.6650 -0.0290  0.2255
  594WAT     H2 1867   0.131   2.942   3.952  2.0400 -2.0527 -0.6785
  595WAT      O 1868   2.055   2.747   2.366  0.2948 -0.0521 -0.0704
  595WAT     H1 1869   2.005   2.822   2.335  0.7660  0.3101  0.0218
  595WAT     H2 1870   2.006   2.671   2.337 -0.5459  0.2915  0.4205
  596WAT      O 1871   0.800   2.012   0.109  0.4637  0.2959 -0.1427
  596WAT     H1 1872   0.747   2.035   0.185 -2.5043  1.9671 -2.5276
  596WAT     H2 1873   0.777   1.920   0.091  1.1506 -0.0954  0.8800
  597WAT      O 1874   1.849   3.390   3.748  0.0967 -0.1768 -0.0700
  597WAT     H1 1875   1.887   3.456   3.806  0.5387 -2.2416  2.1276
  597WAT     H2 1876   1.758   3.419   3.735  0.5936  1.4265 -0.0928
  598WAT      O 1877   3.300   1.258   2.550 -0.1110 -0.2828  0.0586
  598WAT     H1 1878   3.292   1.163   2.552 -0.3984 -0.2514  0.8292
  598WAT     H2 1879   3.274   1.283   2.462 -0.7852 -0.8557  0.0852
  599WAT      O 1880   2.893   1.174   1.203  0.2960  0.4515  0.5276
  599WAT     H1 1881   2.801   1.196   1.214 -0.3216 -0.7321 -1.6879
  599WAT     H2 1882   2.903   1.092   1.251 -0.3084 -0.3613 -0.6657
  600WAT      O 1883   1.969   2.119   2.359  0.0555 -0.0768  0.2190
  600WAT     H1 1884   1.915   2.041   2.346 -0.0621  0.3042 -1.9371
  600WAT     H2 1885   1.906   2.189   2.374  0.0904 -0.1245  0.5929
  601WAT      O 1886   2.941   3.294   1.764 -0.3821  0.5532 -0.3320
  601WAT     H1 1887   2.936   3.281   1.669 -1.2606 -1.1692 -0.0951
  601WAT     H2 1888   2.913   3.210   1.801 -2.2529  1.8676  1.4658
  602WAT      O 1889   2.152   0.417   3.664 -0.3669 -0.3038 -0.5532
  602WAT     H1 1890   2.107   0.369   3.733  1.5535 -1.2416  0.1158
  602WAT     H2 1891   2.144   0.361   3.587 -0.7301 -0.2268 -0.5771
  603WAT      O 1892   0.515   1.810   3.226  0.5303 -0.1814  0.2371
  603WAT     H1 1893   0.491   1.723   3.194  2.0038 -0.5972  0.1902
  603WAT     H2 1894   0.476   1.815   3.313 -0.8497 -0.2627 -0.3392
  604WAT      O 1895   2.975   0.719   3.876 -0.2337  0.3757  0.2463
  604WAT     H1 1896   2.927   0.788   3.831  0.0700  0.1637 -0.4277
  604WAT     H2 1897   2.926   0.639   3.856  0.7135  0.0602 -0.9858
  605WAT      O 1898   0.629   1.782   1.420  0.0219  0.1702 -0.2684
  605WAT     H1 1899   0.553   1.785   1.363 -0.5380 -0.2640  0.4366
  605WAT     H2 1900   0.697   1.738   1.368 -0.9417 -1.6294 -0.0991
  606WAT      O 1901   1.532   0.296   3.397  0.1161  0.4032  0.7131
  606WAT     H1 1902   1.595   0.243   3.446  1.2191  0.4197 -0.6294
  606WAT     H2 1903   1.477   0.232   3.351 -0.5932  0.4014  1.5193
  607WAT      O 1904   0.140   3.857   2.977  0.0819  0.1149  0.0419
  607WAT     H1 1905   0.122   3.948   3.003  0.5869  0.2711 -0.1575
  607WAT     H2 1906   0.229   3.859   2.942  0.4962 -0.6593  1.0058
  608WAT      O 1907   3.187   1.155   3.023 -0.7611 -0.4513 -0.3094
  608WAT     H1 1908   3.181   1.206   2.942 -0.1844 -1.2660 -0.8895
  608WAT     H2 1909   3.223   1.071   2.995  1.3281 -0.0847  1.0851
  609WAT      O 1910   0.538   0.974   2.192 -0.3727 -0.0186 -0.1316
  609WAT     H1 1911   0.495   0.890   2.176 -0.8631  0.0702  0.6885
  609WAT     H2 1912   0.585   0.992   2.111 -0.0153 -1.2275 -0.2266
  610WAT      O 1913   0.027   2.645   2.081 -0.3565  0.6902  0.4394
  610WAT     H1 1914   0.055   2.706   2.013 -1.0210  1.0408  0.4769
  610WAT     H2 1915   0.068   2.562   2.056 -0.1023  0.9565 -0.0550
  611WAT      O 1916   1.095   3.782   0.690 -0.4335 -0.5419  0.0699
  611WAT     H1 1917   1.018   3.729   0.710 -0.1659 -0.7482  0.5690
  611WAT     H2 1918   1.155   3.766   0.763 -0.2834  0.3300  0.1537
  612WAT      O 1919   2.682   0.307   0.963  0.7585 -0.0818 -0.0124
  612WAT     H1 1920   2.595   0.340   0.986  0.5363 -0.4319 -0.3364
  612WAT     H2 1921   2.732   0.315   1.044  0.5785  0.6097  0.0405
  613WAT      O 1922   1.162   3.530   0.453 -0.4626 -0.3971 -0.3451
  613WAT     H1 1923   1.214   3.513   0.374  1.2556  1.8463  0.1967
  613WAT     H2 1924   1.206   3.480   0.522 -1.4683 -1.6786 -0.5801
  614WAT      O 1925   0.223   1.147   3.588 -0.1450  0.3557  0.1396
  614WAT     H1 1926   0.156   1.114   3.529 -0.2586  0.4709  0.2029
  614WAT     H2 1927   0.187   1.229   3.622  0.4308  0.8952 -0.5405
  615WAT      O 1928   0.435   2.262   0.549  0.2726 -0.3961  0.1860
  615WAT     H1 1929   0.369   2.230   0.611 -0.6525 -1.8285 -1.4228
  615WAT     H2 1930   0.410   2.222   0.466  0.9323  2.1502 -1.3350
  616WAT      O 1931   3.471   3.804   0.986  0.4176 -0.0583 -0.4030
  616WAT     H1 1932   3.485   3.873   0.921  0.2520 -0.1023 -0.4864
  616WAT     H2 1933   3.450   3.850   1.066 -1.1409 -0.0315 -0.8014
  617WAT      O 1934   0.729   2.326   1.412 -0.0630  0.3098  0.4681
  617WAT     H1 1935   0.718   2.231   1.410  0.5720  0.2438 -0.9414
  617WAT     H2 1936   0.640   2.360   1.419 -0.4675 -0.3838 -0.9061
  618WAT      O 1937   0.972   2.050   3.325  0.2858 -0.0938 -0.1461
  618WAT     H1 1938   0.950   2.100   3.246  1.4592 -0.8273 -0.9897
  618WAT     H2 1939   0.993   1.962   3.292  0.1067 -0.6204  1.0785
  619WAT      O 1940   3.052   3.568   1.254  0.1243  0.7866 -0.0531
  619WAT     H1 1941   3.141   3.580   1.288  0.1339  0.2658  0.1152
  619WAT     H2 1942   3.051   3.477   1.222  0.4639  1.5437 -2.4778
  620WAT      O 1943   2.136   3.170   2.296 -0.8267 -0.7154 -0.1844
  620WAT     H1 1944   2.142   3.255   2.254 -2.8739 -0.1517  0.5558
  620WAT     H2 1945   2.043   3.157   2.312 -0.7051 -3.5378 -1.1423
  621WAT      O 1946   1.267   2.718   0.594  0.4013 -0.2506 -0.0617
  621WAT     H1 1947   1.179   2.752   0.576 -0.5080 -0.7100  3.0232
  621WAT     H2 1948   1.279   2.648   0.529 -0.9721  0.6337 -1.3325
  622WAT      O 1949   1.842   2.251   2.769 -0.0955 -0.4616 -0.5673
  622WAT     H1 1950   1.925   2.204   2.760 -0.3108 -1.0232  0.2387
  622WAT     H2 1951   1.775   2.182   2.762 -0.4482 -0.1575 -0.2067
  623WAT      O 1952   3.065   3.583   0.722  0.7260  0.0392 -0.2974
  623WAT     H1 1953   2.982   3.569   0.767  0.1339  1.1940 -0.9887
  623WAT     H2 1954   3.128   3.597   0.794 -0.1001  1.3027  0.2288
  624WAT      O 1955   2.889   0.347   3.181  0.1766 -0.4037 -0.6700
  624WAT     H1 1956   2.850   0.275   3.230  0.3660 -0.0557  0.0160
  624WAT     H2 1957   2.979   0.352   3.214  0.1587  0.1588 -0.6904
  625WAT      O 1958   1.191   0.746   0.406 -0.9916  0.2159 -0.0643
  625WAT     H1 1959   1.215   0.762   0.315 -1.2391 -1.2108 -0.4127
  625WAT     H2 1960   1.216   0.826   0.452  0.4674  0.4184 -1.1327
  626WAT      O 1961   1.788   3.797   3.635  0.1982  0.0248  0.0703
  626WAT     H1 1962   1.724   3.725   3.637  0.8155 -0.5390  1.8721
  626WAT     H2 1963   1.788   3.831   3.725  1.1192  1.2130 -0.3561
  627WAT      O 1964   2.527   3.080   0.751 -0.0368  0.2098 -0.1040
  627WAT     H1 1965   2.606   3.135   0.744 -0.3899  0.7664  0.2110
  627WAT     H2 1966   2.560   2.990   0.748  0.6595  0.4343  0.4884
  628WAT      O 1967   0.430   0.366   3.797 -0.0023  0.6353  0.0504
  628WAT     H1 1968   0.408   0.459   3.809  1.1053  1.3630 -2.8040
  628WAT     H2 1969   0.525   0.365   3.789  0.0823 -0.9167  0.9060
  629WAT      O 1970   1.871   2.408   1.175 -0.0124 -0.0544  0.2324
  629WAT     H1 1971   1.950   2.361   1.200 -0.2836 -1.6125 -1.6191
  629WAT     H2 1972   1.900   2.472   1.110 -0.2209 -0.4797 -0.2873
  630WAT      O 1973   1.657   1.374   2.680  0.1597  0.7616 -0.3722
  630WAT     H1 1974   1.584   1.313   2.682 -0.1908  1.2010  0.5749
  630WAT     H2 1975   1.734   1.318   2.667 -0.0234 -0.0397  1.6571
  631WAT      O 1976   0.183   0.683   1.001  0.6203 -0.1783  0.0453
  631WAT     H1 1977   0.112   0.630   0.966  0.2315  0.7927 -0.6654
  631WAT     H2 1978   0.258   0.622   1.006 -0.2872 -1.2643  1.0202
  632WAT      O 1979   2.907   3.188   3.206 -0.1042  0.2608 -0.2439
  632WAT     H1 1980   2.835   3.249   3.218 -0.0987 -0.0415  1.6350
  632WAT     H2 1981   2.945   3.212   3.122 -1.7591  1.0771 -0.7935
  633WAT      O 1982   3.200   2.875   1.418  0.3027  0.4242 -0.0711
  633WAT     H1 1983   3.149   2.892   1.497 -0.1495 -0.9312 -0.0470
  633WAT     H2 1984   3.181   2.784   1.396  3.5449 -0.4936  0.5221
  634WAT      O 1985   0.509   3.300   1.192 -0.3196  0.4371 -0.2224
  634WAT     H1 1986   0.502   3.211   1.158  0.4199  0.3307 -0.1102
  634WAT     H2 1987   0.420   3.334   1.188 -0.7718 -0.6020  0.5393
  635WAT      O 1988   1.395   2.658   3.961  0.1823  0.3752 -0.0617
  635WAT     H1 1989   1.479   2.670   4.005 -0.2238  1.3193  0.4939
  635WAT     H2 1990   1.361   2.574   3.994  0.9608 -0.0855 -0.4108
  636WAT      O 1991   2.278   2.411   3.675 -0.4917  0.4330 -0.1572
  636WAT     H1 1992   2.363   2.396   3.715  0.4662  2.8638 -1.0662
  636WAT     H2 1993   2.217   2.419   3.748  0.6195  1.5372  0.6792
  637WAT      O 1994   2.128   3.914   2.187 -0.3811  0.2060  0.1918
  637WAT     H1 1995   2.070   3.990   2.193 -1.3475 -0.4540 -0.4540
  637WAT     H2 1996   2.212   3.945   2.220 -0.7567  1.5544 -0.0522
  638WAT      O 1997   1.841   2.124   3.878  0.0738  0.3428 -0.2374
  638WAT     H1 1998   1.834   2.169   3.962 -0.2924  0.0726 -0.1265
  638WAT     H2 1999   1.934   2.133   3.854  0.4263 -0.5664  0.7379
  639WAT      O 2000   0.628   1.896   0.549  0.0366 -0.0558 -0.1217
  639WAT     H1 2001   0.536   1.900   0.576 -0.4867 -3.4815 -0.8429
  639WAT     H2 2002   0.677   1.925   0.625 -1.6079  0.0366  0.9641
  640WAT      O 2003   1.059   2.111   0.064  0.4191  0.0130  1.5319
  640WAT     H1 2004   0.974   2.073   0.088 -0.2348  0.3836 -0.0619
  640WAT     H2 2005   1.065   2.191   0.117  0.5325 -0.8458  2.8509
  641WAT      O 2006   3.501   2.040   0.843 -0.0730 -0.1700 -0.2622
  641WAT     H1 2007   3.559   1.993   0.902 -2.7293 -1.9328  1.1237
  641WAT     H2 2008   3.451   2.099   0.900 -1.0472 -0.1628 -1.0950
  642WAT      O 2009   1.573   3.476   0.076  0.2620 -0.1145 -0.1296
  642WAT     H1 2010   1.550   3.558   0.034  1.5969 -0.5680 -1.8786
  642WAT     H2 2011   1.668   3.478   0.083  0.2506 -1.1277  0.6523
  643WAT      O 2012   1.794   1.577   0.170 -0.4569  0.2697 -0.2843
  643WAT     H1 2013   1.806   1.499   0.226 -3.6215  0.6570  1.1574
  643WAT     H2 2014   1.718   1.556   0.116 -0.5568  1.8890 -0.8208
  644WAT      O 2015   1.551   1.148   0.073 -0.3658 -0.1245 -0.7830
  644WAT     H1 2016   1.543   1.110   0.161 -0.4647 -0.4606 -0.9353
  644WAT     H2 2017   1.495   1.225   0.075  0.2521  0.3247 -0.3035
  645WAT      O 2018   2.490   2.987   2.692  0.0559  0.1247  0.2344
  645WAT     H1 2019   2.486   2.901   2.652 -2.4987 -0.6614  1.9240
  645WAT     H2 2020   2.512   3.046   2.620 -0.0435 -1.6816 -1.3615
  646WAT      O 2021   2.176   3.307   2.920 -0.0386  0.3362  0.3096
  646WAT     H1 2022   2.162   3.214   2.901  0.3136 -0.0652  1.8498
  646WAT     H2 2023   2.205   3.344   2.837 -0.1206 -0.9488 -0.3213
  647WAT      O 2024   0.500   0.446   3.530  0.0314  0.2101  0.0857
  647WAT     H1 2025   0.452   0.467   3.610 -0.7029 -0.9165 -0.0365
  647WAT     H2 2026   0.435   0.401   3.475  1.3099 -1.7193  0.0742
  648WAT      O 2027   1.342   2.063   0.703 -0.1961 -0.1623 -0.2887
  648WAT     H1 2028   1.361   2.025   0.617  0.3176  1.5211 -0.9674
  648WAT     H2 2029   1.248   2.078   0.703 -0.5236 -1.9634  0.2558
  649WAT      O 2030   2.953   0.812   2.387 -0.1405  0.1583 -0.4237
  649WAT     H1 2031   3.007   0.883   2.354  0.3463 -0.0513 -0.0979
  649WAT     H2 2032   3.016   0.749   2.422 -0.4440 -1.2369 -2.2358
  650WAT      O 2033   2.692   3.901   0.517 -0.1765  0.3907  0.4981
  650WAT     H1 2034   2.665   3.860   0.435 -2.8262 -0.0844  1.4942
  650WAT     H2 2035   2.706   3.828   0.578 -0.3458  0.7859  1.0252
  651WAT      O 2036   2.502   1.697   3.164  0.0836  0.4237 -0.3897
  651WAT     H1 2037   2.525   1.695   3.071 -0.0267 -2.3402 -0.4502
  651WAT     H2 2038   2.519   1.608   3.194 -0.5464  1.0739  2.1026
  652WAT      O 2039   2.128   3.772   2.605 -0.0044 -0.4337 -0.0044
  652WAT     H1 2040   2.067   3.775   2.679  1.7456  1.6487  1.4447
  652WAT     H2 2041   2.210   3.740   2.643  0.1562 -2.2410 -1.7259
  653WAT      O 2042   1.721   2.762   0.389  0.6206  0.4784 -0.0627
  653WAT     H1 2043   1.791   2.780   0.452  0.0387  0.8682  0.4905
  653WAT     H2 2044   1.641   2.779   0.438  0.0460 -1.8774 -0.0721
  654WAT      O 2045   1.537   3.564   0.739 -0.0139 -0.3269 -0.7605
  654WAT     H1 2046   1.460   3.619   0.755 -1.3011 -2.6251  1.8074
  654WAT     H2 2047   1.599   3.590   0.807 -0.9982 -2.4296  1.1070
  655WAT      O 2048   0.852   3.584   3.849  0.3975 -0.2850 -0.1005
  655WAT     H1 2049   0.923   3.538   3.804  0.2562 -0.5582 -0.0439
  655WAT     H2 2050   0.774   3.562   3.798  0.5154  0.9376 -0.8507
  656WAT      O 2051   0.137   0.310   3.148  0.0581 -0.0126  0.0041
  656WAT     H1 2052   0.197   0.235   3.147  0.3052  0.1821 -0.8530
  656WAT     H2 2053   0.177   0.372   3.087  0.8797  1.6423  2.1197
  657WAT      O 2054   3.095   2.440   2.197  0.3195  0.4259  0.1083
  657WAT     H1 2055   3.043   2.498   2.142 -2.7691 -2.0153  0.1678
  657WAT     H2 2056   3.169   2.414   2.142  0.3073  2.2553 -0.8437
  658WAT      O 2057   2.029   0.690   3.701 -0.1762 -0.2766  0.2139
  658WAT     H1 2058   2.099   0.635   3.737 -0.6783 -1.6061 -0.7436
  658WAT     H2 2059   1.956   0.677   3.761 -0.4983 -1.2127 -0.3490
  659WAT      O 2060   1.898   2.363   3.345 -0.7494 -0.4008  0.2850
  659WAT     H1 2061   1.891   2.416   3.424 -0.5694 -2.0854  1.4563
  659WAT     H2 2062   1.911   2.274   3.376  0.4270 -0.9631 -1.6447
  660WAT      O 2063   0.944   2.849   2.108  0.3397  0.4322 -0.1377
  660WAT     H1 2064   0.983   2.774   2.063 -1.8621 -1.6407  1.2292
  660WAT     H2 2065   0.929   2.913   2.037  2.0746 -0.4136 -1.3619
  661WAT      O 2066   1.805   4.024   0.354 -0.4052 -0.8111 -0.1954
  661WAT     H1 2067   1.851   3.952   0.397  0.1640 -0.6759 -0.5581
  661WAT     H2 2068   1.853   4.036   0.272  0.8648  1.3603  0.7786
  662WAT      O 2069   1.522   0.161   0.222 -0.1898 -0.5511  0.5149
  662WAT     H1 2070   1.579   0.139   0.149 -0.5410 -0.4902  0.2151
  662WAT     H2 2071   1.439   0.186   0.180 -0.0213  0.6617  0.8653
  663WAT      O 2072   3.553   3.301   3.098  0.1436  0.6681  0.6030
  663WAT     H1 2073   3.506   3.269   3.022  0.6907  1.9126 -0.3121
  663WAT     H2 2074   3.585   3.388   3.072  1.2268  0.7041  1.8809
  664WAT      O 2075   2.288   2.767   3.145 -0.0544  0.2373  0.2456
  664WAT     H1 2076   2.268   2.826   3.072  0.8768  0.3938  0.0975
  664WAT     H2 2077   2.330   2.691   3.104  0.3689  0.2738  0.6015
  665WAT      O 2078   3.565   0.703   1.415 -0.1373  0.4782  0.2067
  665WAT     H1 2079   3.647   0.713   1.366 -0.2030 -1.4451 -0.3862
  665WAT     H2 2080   3.581   0.748   1.498  1.4455  0.3072  0.0259
  666WAT      O 2081   2.745   0.972   0.920 -0.2064  0.0242  0.2027
  666WAT     H1 2082   2.675   1.032   0.946  0.4574 -0.1718  2.8052
  666WAT     H2 2083   2.820   1.029   0.902 -0.7518  0.1821 -1.8164
  667WAT      O 2084   0.546   3.051   2.748 -0.2509  0.2915  0.1621
  667WAT     H1 2085   0.533   3.134   2.702 -0.9509  0.3049  0.3712
  667WAT     H2 2086   0.595   2.997   2.686  0.7584  1.0641  0.2574
  668WAT      O 2087   1.581   1.731   3.957 -0.1442  0.3296  0.1839
  668WAT     H1 2088   1.609   1.820   3.979 -0.4494 -0.0106  2.1645
  668WAT     H2 2089   1.486   1.735   3.964 -0.1748 -0.0650 -0.0482
  669WAT      O 2090   3.170   1.925   2.913 -0.0152  0.0553 -0.2606
  669WAT     H1 2091   3.137   1.845   2.873 -0.6100  0.6311 -0.9674
  669WAT     H2 2092   3.177   1.905   3.006 -0.7866 -0.6048 -0.3388
  670WAT      O 2093   0.355   3.351   1.995 -0.2279  0.1764 -0.2521
  670WAT     H1 2094   0.359   3.292   1.919 -0.0971  2.0774 -1.7900
  670WAT     H2 2095   0.438   3.398   1.993 -0.7451  1.1370  0.3278
  671WAT      O 2096   0.274   1.275   3.874  0.2860 -0.5948 -0.2426
  671WAT     H1 2097   0.211   1.341   3.905  1.6001  0.7749 -0.3547
  671WAT     H2 2098   0.225   1.193   3.875 -1.5959  0.4611 -0.6198
  672WAT      O 2099   2.873   3.923   3.678 -0.3204  0.1549  0.1638
  672WAT     H1 2100   2.935   3.891   3.612 -0.2612 -1.2999  0.8676
  672WAT     H2 2101   2.832   3.999   3.639  1.0396  0.4115 -0.8081
  673WAT      O 2102   3.054   3.012   2.613  0.3228  0.2296 -0.6393
  673WAT     H1 2103   3.029   3.012   2.705 -4.0123 -0.0720 -1.6417
  673WAT     H2 2104   3.074   3.104   2.594 -1.4478  0.7734  0.0151
  674WAT      O 2105   0.980   1.369   3.737  0.7067 -0.7412 -0.2234
  674WAT     H1 2106   1.011   1.359   3.827  0.9730  0.1401 -0.2068
  674WAT     H2 2107   0.896   1.415   3.746  1.0273 -0.1019 -0.4542
  675WAT      O 2108   2.867   2.412   3.305  0.4553  0.5790 -0.0579
  675WAT     H1 2109   2.956   2.421   3.271  0.8422  2.0039  1.2042
  675WAT     H2 2110   2.847   2.319   3.297  0.6284  0.7165 -3.7410
  676WAT      O 2111   1.293   0.281   2.075  0.0020  0.3833  0.3179
  676WAT     H1 2112   1.279   0.365   2.119 -0.6421  0.3341  0.2100
  676WAT     H2 2113   1.388   0.275   2.065  0.1702  0.3289  1.8070
  677WAT      O 2114   0.128   0.422   1.387 -0.0048 -0.2712 -0.1792
  677WAT     H1 2115   0.074   0.424   1.308 -0.3316 -0.7765  0.0277
  677WAT     H2 2116   0.188   0.348   1.374 -0.4316 -0.7084  0.2796
  678WAT      O 2117   3.187   4.067   3.949 -0.2368  0.6222 -0.2107
  678WAT     H1 2118   3.104   4.035   3.985 -0.0425  0.1606 -0.1755
  678WAT     H2 2119   3.173   4.161   3.939 -1.8646  0.2089 -3.0262
  679WAT      O 2120   1.226   2.787   0.267  0.2251  0.9520 -0.1045
  679WAT     H1 2121   1.275   2.838   0.203  1.8884 -2.2036 -1.6100
  679WAT     H2 2122   1.182   2.719   0.215 -1.6716  0.6598  1.7535
  680WAT      O 2123   0.901   1.008   2.094 -0.0825 -0.1465  0.0478
  680WAT     H1 2124   0.881   1.033   2.184 -1.5581  1.8199 -0.7656
  680WAT     H2 2125   0.900   0.912   2.095  0.1203 -0.1647  2.1300
  681WAT      O 2126   2.405   1.558   1.929  0.5350  0.7514 -0.0224
  681WAT     H1 2127   2.406   1.464   1.944 -0.8569  0.8773  1.0708
  681WAT     H2 2128   2.449   1.570   1.844 -1.9840 -1.1596 -1.7189
  682WAT      O 2129   3.306   3.422   2.198 -0.1485 -0.3862  0.8155
  682WAT     H1 2130   3.237   3.487   2.213 -0.7393 -0.9193  0.4651
  682WAT     H2 2131   3.378   3.472   2.159 -0.9429 -0.0855 -0.3220
  683WAT      O 2132   0.154   3.827   3.602  0.9341  0.0548 -0.3837
  683WAT     H1 2133   0.167   3.898   3.538  0.2508 -0.1372 -0.7423
  683WAT     H2 2134   0.243   3.803   3.629  1.2802 -0.3242 -1.7823
  684WAT      O 2135   3.536   2.013   1.356  0.0349 -0.7340 -0.5111
  684WAT     H1 2136   3.539   1.936   1.414  1.5632 -0.8549 -0.6984
  684WAT     H2 2137   3.443   2.029   1.342 -0.3178 -2.4696 -0.3575
  685WAT      O 2138   1.450   3.187   1.224  0.1666  0.0963 -0.7458
  685WAT     H1 2139   1.361   3.211   1.200  0.3243  0.9322 -0.5321
  685WAT     H2 2140   1.479   3.129   1.154 -0.3732  0.2174 -1.0729
  686WAT      O 2141   3.413   0.760   2.380  0.0609  0.7121  0.2833
  686WAT     H1 2142   3.384   0.745   2.470 -1.1278  0.2305 -0.1560
  686WAT     H2 2143   3.430   0.854   2.375 -0.3087  0.8163  0.8764
  687WAT      O 2144   0.814   2.845   2.783  0.0304  0.3874  0.2287
  687WAT     H1 2145   0.766   2.764   2.801 -0.6223  1.0467  1.5966
  687WAT     H2 2146   0.868   2.824   2.707  0.8896 -1.7600  1.3304
  688WAT      O 2147   1.437   3.621   2.142  0.3144 -0.2391 -0.0204
  688WAT     H1 2148   1.401   3.568   2.212 -1.3032 -0.6598 -1.1042
  688WAT     H2 2149   1.385   3.598   2.065  0.5346  1.8183 -0.8702
  689WAT      O 2150   2.829   0.008   0.423  0.4824 -0.4578 -0.5218
  689WAT     H1 2151   2.756   0.070   0.426  0.7652 -0.1194 -0.5598
  689WAT     H2 2152   2.790  -0.075   0.448  0.4495  0.0696  1.3509
  690WAT      O 2153   1.546   0.582   2.269  0.2496 -0.6551  0.0265
  690WAT     H1 2154   1.624   0.624   2.307 -0.8731  0.4931  1.1853
  690WAT     H2 2155   1.538   0.621   2.183 -1.1445  2.2061  1.3174
  691WAT      O 2156   2.498   3.102   2.411 -0.1060 -0.0437  0.6668
  691WAT     H1 2157   2.409   3.072   2.391  0.1432 -0.4387  0.1517
  691WAT     H2 2158   2.555   3.035   2.374  0.5069  1.5975 -1.5895
  692WAT      O 2159   0.606   0.892   1.919  0.3410 -0.5758  0.2625
  692WAT     H1 2160   0.669   0.843   1.868  1.1975 -0.6465  1.3513
  692WAT     H2 2161   0.527   0.894   1.865  1.0978 -0.9518 -0.8793
  693WAT      O 2162   0.633   2.645   1.968 -0.6494 -0.1684 -0.3672
  693WAT     H1 2163   0.664   2.678   2.053 -0.6380  1.5597 -1.0105
  693WAT     H2 2164   0.581   2.716   1.932 -1.1580 -1.1110 -1.5692
  694WAT      O 2165   1.336   3.335   0.609 -0.6151  0.2392  0.0713
  694WAT     H1 2166   1.266   3.273   0.628 -0.1134 -0.2859  0.2249
  694WAT     H2 2167   1.393   3.290   0.548  0.1854  0.2379  0.7980
  695WAT      O 2168   0.733   0.491   0.789  0.0246  0.7189 -0.1137
  695WAT     H1 2169   0.800   0.442   0.741  0.2969 -1.2956  2.1203
  695WAT     H2 2170   0.657   0.491   0.731  0.6228 -0.8019 -0.9604
  696WAT      O 2171   3.497   1.836   0.175 -0.0349 -0.0056  0.1791
  696WAT     H1 2172   3.574   1.874   0.218  0.0678 -0.1861  0.1561
  696WAT     H2 2173   3.477   1.898   0.104 -1.3311  1.2885  1.5932
  697WAT      O 2174   0.063   1.098   1.435 -0.3500  0.1031 -0.4193
  697WAT     H1 2175   0.148   1.097   1.391 -0.5968 -1.0256 -0.9071
  697WAT     H2 2176   0.075   1.044   1.513 -0.6606 -0.2365 -0.6001
  698WAT      O 2177   0.698   1.357   2.863  0.5020 -0.0945 -0.1151
  698WAT     H1 2178   0.652   1.428   2.819  1.2752  0.8179  0.4783
  698WAT     H2 2179   0.785   1.355   2.822  1.0543  0.4257  0.9681
  699WAT      O 2180   0.269   0.012   0.520 -0.3131  0.7227  0.0413
  699WAT     H1 2181   0.250  -0.080   0.500  0.5148  0.6962 -0.6535
  699WAT     H2 2182   0.246   0.060   0.440 -1.0932  1.1797  0.5254
  700WAT      O 2183   1.620   0.036   0.702 -0.3101  0.2370 -0.1836
  700WAT     H1 2184   1.526   0.051   0.703 -0.5386 -1.0524  0.9371
  700WAT     H2 2185   1.629  -0.057   0.680  0.6961  0.3245 -0.1959
  701WAT      O 2186   3.666   2.768   1.620 -0.3305 -0.4010 -0.0885
  701WAT     H1 2187   3.673   2.816   1.538  0.9741 -0.0023  0.2334
  701WAT     H2 2188   3.572   2.769   1.640 -0.7020 -0.7119 -1.6686
  702WAT      O 2189   2.097   2.138   3.789  0.1223  0.0895  0.7423
  702WAT     H1 2190   2.082   2.048   3.761 -1.2212  0.3394  0.5977
  702WAT     H2 2191   2.114   2.186   3.707 -2.8438  0.6349  0.3460
  703WAT      O 2192   0.472   0.958   0.157 -0.8921  0.3954 -0.2329
  703WAT     H1 2193   0.507   0.943   0.069  1.1785 -0.4754  0.6917
  703WAT     H2 2194   0.537   0.920   0.216 -1.6271  2.0312  1.7460
  704WAT      O 2195   1.000   2.612   0.377 -0.3847 -0.7216  0.1770
  704WAT     H1 2196   1.037   2.697   0.400  0.3108 -1.2281  0.9848
  704WAT     H2 2197   0.941   2.631   0.304 -0.7886  0.5665  0.7938
  705WAT      O 2198   1.775   0.765   3.447 -0.4933 -0.1388  0.6471
  705WAT     H1 2199   1.856   0.726   3.415  0.1700  0.1747  1.9123
  705WAT     H2 2200   1.803   0.838   3.502 -1.6697  0.8683 -0.0135
  706WAT      O 2201   0.757   1.787   2.920 -0.4846 -0.0804  0.6114
  706WAT     H1 2202   0.726   1.791   2.830  0.1951  0.1731  0.3831
  706WAT     H2 2203   0.695   1.840   2.970 -1.3641 -0.9279  0.4458
  707WAT      O 2204   0.708   2.234   0.649  0.3665  0.0415 -0.7281
  707WAT     H1 2205   0.614   2.226   0.632  0.1432  0.4441  0.2830
  707WAT     H2 2206   0.738   2.144   0.663 -0.3487  0.0798  1.3578
  708WAT      O 2207   0.862   3.084   3.942  0.1485  0.0235  0.5487
  708WAT     H1 2208   0.789   3.074   3.881 -0.1389  1.0165  0.7194
  708WAT     H2 2209   0.821   3.088   4.028  0.3968  0.6049  0.6449
  709WAT      O 2210   1.264   1.908   1.621 -0.4895  0.2546  0.1671
  709WAT     H1 2211   1.327   1.916   1.692 -0.6490  0.9241  0.2345
  709WAT     H2 2212   1.275   1.818   1.589 -0.3025  0.0044  0.9264
  710WAT      O 2213   1.779   1.004   1.366  0.1314 -0.3533  0.0630
  710WAT     H1 2214   1.843   0.943   1.403  2.0492  1.7473  0.3861
  710WAT     H2 2215   1.775   0.981   1.273 -0.2502 -1.8193  0.4078
  711WAT      O 2216   1.931   3.735   2.784 -0.0800 -0.0568 -0.9267
  711WAT     H1 2217   1.873   3.664   2.811 -0.3863 -0.4387 -2.5293
  711WAT     H2 2218   1.874   3.795   2.736  0.4312  0.6629 -0.6454
  712WAT      O 2219   0.926   1.250   2.271  0.4947  0.1290  0.0807
  712WAT     H1 2220   0.834   1.246   2.296  0.5664 -0.6108  0.2698
  712WAT     H2 2221   0.937   1.336   2.231 -0.2467  0.2742  0.1793
  713WAT      O 2222   3.213   3.747   0.568  0.1699 -0.2436  0.0479
  713WAT     H1 2223   3.159   3.823   0.548  0.8065 -0.0875 -1.1797
  713WAT     H2 2224   3.173   3.708   0.645 -0.1688  1.3326  0.6931
  714WAT      O 2225   2.559   1.610   2.660  0.3534 -0.4070  0.0885
  714WAT     H1 2226   2.495   1.542   2.683 -0.3443  0.0242 -0.5003
  714WAT     H2 2227   2.528   1.642   2.575  0.7094  0.6024  0.3370
  715WAT      O 2228   1.432   3.636   3.365  0.3801 -0.2951  0.2772
  715WAT     H1 2229   1.520   3.651   3.331  0.7825  0.7241  1.6756
  715WAT     H2 2230   1.410   3.547   3.336  1.2968 -0.0595 -1.2452
  716WAT      O 2231   2.416   3.352   0.934 -0.2426  0.3009 -0.2151
  716WAT     H1 2232   2.480   3.287   0.961 -0.0645  0.3214 -0.5781
  716WAT     H2 2233   2.402   3.335   0.840 -0.8996  0.1815 -0.1017
  717WAT      O 2234   2.698   2.220   2.316  0.6718  0.2929 -0.0153
  717WAT     H1 2235   2.720   2.245   2.226 -1.6011 -1.8051 -1.2779
  717WAT     H2 2236   2.606   2.247   2.326  0.5141 -0.6079  1.2349
  718WAT      O 2237   0.780   1.519   0.295  0.0458 -1.0242 -0.2462
  718WAT     H1 2238   0.744   1.581   0.358 -1.5576 -1.6689 -0.4863
  718WAT     H2 2239   0.869   1.501   0.327 -0.3923 -0.6120  1.2834
  719WAT      O 2240   0.573   3.368   1.461 -0.6248  0.3329  0.1938
  719WAT     H1 2241   0.549   3.373   1.368  1.7599  1.6271 -0.4258
  719WAT     H2 2242   0.635   3.296   1.466  0.1378  0.9893  0.5261
  720WAT      O 2243   2.252   1.853   0.572  0.0749  0.2995 -0.2654
  720WAT     H1 2244   2.298   1.803   0.639 -3.1920  0.6008  2.5097
  720WAT     H2 2245   2.182   1.899   0.620 -0.7961  2.7967 -3.5279
  721WAT      O 2246   2.802   1.473   1.330 -0.1354 -0.2412 -0.0734
  721WAT     H1 2247   2.727   1.525   1.300 -0.2634 -0.8919 -0.8876
  721WAT     H2 2248   2.776   1.382   1.316  0.2467 -0.5334  0.9808
  722WAT      O 2249   3.280   3.657   1.420 -0.6052 -0.1188  0.2875
  722WAT     H1 2250   3.364   3.614   1.439  0.1857  1.4297  0.4113
  722WAT     H2 2251   3.228   3.644   1.499 -0.4493 -0.9740  0.2613
  723WAT      O 2252   3.241   3.885   0.247 -0.2941 -0.2735  0.0768
  723WAT     H1 2253   3.232   3.915   0.337 -0.5526  0.1609 -0.0914
  723WAT     H2 2254   3.336   3.885   0.231 -0.0727 -2.4091  1.0231
  724WAT      O 2255   0.863   2.633   1.418  0.4654  0.0825  0.3670
  724WAT     H1 2256   0.775   2.597   1.418  0.4162  0.1715  1.6509
  724WAT     H2 2257   0.871   2.677   1.503  0.6943  2.6720 -0.8990
  725WAT      O 2258   1.148   3.268   3.472  0.0226  0.7758 -0.2811
  725WAT     H1 2259   1.080   3.333   3.459 -0.8977  0.3113  1.7569
  725WAT     H2 2260   1.119   3.217   3.548  1.4940 -0.9664 -0.7940
  726WAT      O 2261   0.396   3.983   0.213  0.1004 -0.0035 -0.6553
  726WAT     H1 2262   0.331   4.045   0.248  0.3973  0.5925 -1.1343
  726WAT     H2 2263   0.389   3.993   0.118  1.5503  0.7933 -0.7064
  727WAT      O 2264   3.585   1.108   2.710  0.1447  0.2465  0.0496
  727WAT     H1 2265   3.594   1.036   2.647 -0.2059  0.6595 -0.4742
  727WAT     H2 2266   3.635   1.079   2.786 -0.4037 -0.7762  0.0401
  728WAT      O 2267   0.075   3.329   2.599  0.3147  0.3649  0.2709
  728WAT     H1 2268   0.074   3.257   2.661 -0.2409 -0.2975 -0.4882
  728WAT     H2 2269   0.008   3.306   2.534  0.8835  1.0234 -0.5741
  729WAT      O 2270   1.870   3.585   1.371 -0.3109  0.2875 -0.1815
  729WAT     H1 2271   1.922   3.509   1.344  0.5936  0.6829  0.3929
  729WAT     H2 2272   1.870   3.643   1.294 -1.9306 -0.7512 -1.0046
  730WAT      O 2273   1.995   0.082   2.267  0.2669  0.1701 -0.3827
  730WAT     H1 2274   1.977   0.044   2.353 -0.5652 -2.3503 -1.5793
  730WAT     H2 2275   2.059   0.151   2.284  0.4205 -0.5179  2.2022
  731WAT      O 2276   1.010   2.924   2.359  0.2893  0.1857  0.3224
  731WAT     H1 2277   0.988   2.898   2.270 -0.8812  2.6843 -0.1897
  731WAT     H2 2278   1.072   2.996   2.349  0.0424  0.5935  1.5183
  732WAT      O 2279   2.021   3.757   3.066 -0.7004 -0.0463 -0.5607
  732WAT     H1 2280   2.029   3.662   3.082 -1.7251  0.1273  1.3595
  732WAT     H2 2281   1.990   3.763   2.976  0.5898 -1.4632 -1.1581
  733WAT      O 2282   0.010   3.968   0.649  0.1171 -0.3832 -0.0321
  733WAT     H1 2283  -0.057   3.935   0.589 -1.2665  1.1817  0.5627
  733WAT     H2 2284   0.010   3.907   0.722 -0.4415 -0.5738 -0.1879
  734WAT      O 2285   0.071   0.292   2.483  0.2185  0.2822 -0.8647
  734WAT     H1 2286   0.132   0.221   2.462  0.0535  0.1221 -0.8067
  734WAT     H2 2287   0.059   0.339   2.400  2.2569  1.7634 -0.3944
  735WAT      O 2288   1.542   2.491   0.583  0.7096 -0.2562  0.1527
  735WAT     H1 2289   1.459   2.502   0.537  1.4713 -3.0558 -2.1106
  735WAT     H2 2290   1.526   2.421   0.646  0.7109  1.0079  1.6305
  736WAT      O 2291   0.888   0.505   0.087 -0.2526  0.5263 -0.1437
  736WAT     H1 2292   0.979   0.477   0.084 -0.5861 -0.6107 -0.3188
  736WAT     H2 2293   0.891   0.601   0.085  0.9138  0.4876 -0.6030
  737WAT      O 2294   1.284   3.007   0.881  0.4898  0.1588  0.2937
  737WAT     H1 2295   1.211   3.069   0.877  0.3726 -0.0440 -2.3392
  737WAT     H2 2296   1.243   2.922   0.891  0.2629 -0.0107 -1.7059
  738WAT      O 2297   3.417   1.580   1.351  0.3181  0.5608  0.2157
  738WAT     H1 2298   3.485   1.569   1.417 -0.2585 -2.7389  0.4278
  738WAT     H2 2299   3.462   1.567   1.268  0.3050  0.4897  0.2200
  739WAT      O 2300   3.348   1.659   3.782 -0.0277 -0.3411 -0.1693
  739WAT     H1 2301   3.314   1.747   3.801 -1.1334 -0.4556 -1.4695
  739WAT     H2 2302   3.280   1.600   3.815  0.6191 -0.7192  0.5205
  740WAT      O 2303   3.212   1.523   2.562  0.3275  0.0625  0.0351
  740WAT     H1 2304   3.274   1.554   2.496  0.0947 -0.2794 -0.3526
  740WAT     H2 2305   3.242   1.434   2.581 -0.7639 -0.5807 -1.0869
  741WAT      O 2306   1.816   0.401   0.031  0.0938  0.0586  0.2056
  741WAT     H1 2307   1.870   0.371   0.104  1.7840  0.1682 -0.9429
  741WAT     H2 2308   1.833   0.495   0.026 -1.3975  0.3921  0.7327
  742WAT      O 2309   1.189   0.586   3.772  0.6930 -0.5418  0.1820
  742WAT     H1 2310   1.101   0.551   3.761 -0.0327  1.0928  0.5190
  742WAT     H2 2311   1.203   0.642   3.695  1.9100 -1.6692 -0.4646
  743WAT      O 2312   3.583   3.532   2.864 -0.7945 -0.2028  0.0722
  743WAT     H1 2313   3.532   3.474   2.808 -0.6789 -0.5593  0.3332
  743WAT     H2 2314   3.519   3.570   2.924 -0.8037 -0.3987  0.1867
  744WAT      O 2315   3.086   1.797   0.200 -0.3092 -0.5168 -0.2920
  744WAT     H1 2316   2.991   1.796   0.211 -0.2439 -1.5414  0.3380
  744WAT     H2 2317   3.106   1.884   0.166 -1.4713 -0.2934 -0.4307
  745WAT      O 2318   0.338   2.377   3.606 -0.0224 -0.9821  0.1063
  745WAT     H1 2319   0.318   2.455   3.657  0.0166  0.1713 -1.5637
  745WAT     H2 2320   0.433   2.381   3.594 -0.1788 -0.5410 -1.0933
  746WAT      O 2321   0.451   1.250   0.110  0.2420 -0.9282 -0.2884
  746WAT     H1 2322   0.387   1.248   0.038  0.4849 -1.2649 -0.4997
  746WAT     H2 2323   0.464   1.157   0.132 -0.3489 -0.7991  0.6535
  747WAT      O 2324   2.727   0.788   2.259  0.0831  0.1308 -0.2995
  747WAT     H1 2325   2.815   0.810   2.290 -0.3703  3.3186 -0.9519
  747WAT     H2 2326   2.725   0.817   2.168 -1.9772  1.2859  0.0605
  748WAT      O 2327   2.617   2.542   1.929 -0.6681 -0.3005  0.0365
  748WAT     H1 2328   2.583   2.495   1.853 -2.0396 -0.3707  0.6591
  748WAT     H2 2329   2.648   2.625   1.893 -1.6409 -0.1786 -0.5758
  749WAT      O 2330   0.435   1.796   1.682 -0.9101 -0.4785 -0.3538
  749WAT     H1 2331   0.521   1.827   1.656 -1.0518 -0.4406 -0.7838
  749WAT     H2 2332   0.430   1.707   1.648 -1.0831 -0.4424 -0.4263
  750WAT      O 2333   0.425   3.944   0.879 -0.1319  0.4611  0.0036
  750WAT     H1 2334   0.412   3.990   0.797  0.0898 -0.3059 -0.4717
  750WAT     H2 2335   0.484   4.001   0.929  1.0716  0.1750 -1.0339
  751WAT      O 2336   1.406   2.454   2.504  0.0478  0.0342  0.2360
  751WAT     H1 2337   1.326   2.483   2.460 -0.4363 -1.2763  0.2086
  751WAT     H2 2338   1.402   2.495   2.590 -2.4145 -2.5952  1.5438
  752WAT      O 2339   3.667   1.165   0.520  0.1193 -0.1272 -0.1611
  752WAT     H1 2340   3.619   1.237   0.561 -0.7141 -0.7882  0.0640
  752WAT     H2 2341   3.749   1.159   0.569 -0.8117 -0.8365  1.3816
  753WAT      O 2342   2.915   2.543   1.363 -0.0307  0.3615  0.2084
  753WAT     H1 2343   2.871   2.505   1.439 -0.9128  0.5635 -0.1893
  753WAT     H2 2344   2.851   2.604   1.327  0.2268 -0.0149 -0.9267
  754WAT      O 2345   3.120   4.050   3.604 -0.3696 -0.1930  0.0867
  754WAT     H1 2346   3.074   4.113   3.660  0.0703  0.2367 -0.0257
  754WAT     H2 2347   3.144   4.101   3.526  0.3224 -0.3956  0.1628
  755WAT      O 2348   1.856   2.574   0.045 -0.4620 -0.1335 -0.0810
  755WAT     H1 2349   1.871   2.526   0.127 -0.2760 -1.4963 -0.8862
  755WAT     H2 2350   1.809   2.653   0.072  0.8258  0.1597  1.5071
  756WAT      O 2351   0.528   2.013   3.493 -0.4989 -0.7832 -0.6576
  756WAT     H1 2352   0.485   2.059   3.565  0.3032 -0.8425 -0.1261
  756WAT     H2 2353   0.472   1.937   3.476  0.3742 -1.9646  1.3585
  757WAT      O 2354   2.681   0.027   2.990  0.4722 -0.3124  0.3885
  757WAT     H1 2355   2.670   0.099   2.928  0.1061  0.5442  1.4244
  757WAT     H2 2356   2.613  -0.036   2.966 -0.0988  0.3159  0.3332
  758WAT      O 2357   1.084   3.497   1.715  0.5055  0.6404 -0.3200
  758WAT     H1 2358   1.159   3.493   1.774 -0.9232 -0.7466  1.5112
  758WAT     H2 2359   1.017   3.444   1.758 -0.9706  0.4363 -2.7167
  759WAT      O 2360   2.027   0.271   3.850 -0.3824 -0.6269 -0.0116
  759WAT     H1 2361   2.039   0.265   3.944 -1.7867 -1.7074  0.1433
  759WAT     H2 2362   1.992   0.185   3.825  0.5950 -0.6064 -1.6257
  760WAT      O 2363   3.701   3.711   1.083 -0.3257  0.1106  0.8561
  760WAT     H1 2364   3.614   3.747   1.069 -0.4476 -0.4637  0.1403
  760WAT     H2 2365   3.758   3.788   1.089 -0.7158  0.4507  0.2029
  761WAT      O 2366   0.756   3.426   0.493 -0.3318 -0.2493  0.4204
  761WAT     H1 2367   0.674   3.456   0.452  0.8168  0.0831 -1.7761
  761WAT     H2 2368   0.782   3.350   0.440  1.0890  0.0342  0.6895
  762WAT      O 2369   3.116   3.086   0.257 -0.4553 -0.0414 -0.4676
  762WAT     H1 2370   3.166   3.030   0.196  1.9791  0.4660  0.9437
  762WAT     H2 2371   3.133   3.175   0.226 -0.4420  0.1382  0.0554
  763WAT      O 2372   3.623   3.988   2.635  0.0379  0.0824 -0.1822
  763WAT     H1 2373   3.539   3.960   2.601  0.2252  0.4086 -0.9362
  763WAT     H2 2374   3.657   3.912   2.682 -0.8261  0.0643  0.4372
  764WAT      O 2375   2.031   3.034   2.893  0.3219 -0.2440  0.3062
  764WAT     H1 2376   2.110   2.981   2.885  0.4807  0.1236 -0.6116
  764WAT     H2 2377   1.993   3.034   2.805 -0.4059  0.0462  0.6084
  765WAT      O 2378   2.263   2.372   0.368 -0.5527  0.3185  0.0060
  765WAT     H1 2379   2.225   2.425   0.438 -0.7986  0.4609 -0.2309
  765WAT     H2 2380   2.313   2.304   0.413 -1.2218  0.0312  0.3242
  766WAT      O 2381   3.524   0.921   1.202 -0.1371  0.4959  0.4233
  766WAT     H1 2382   3.490   0.876   1.279  0.1385  0.9851  0.8413
  766WAT     H2 2383   3.617   0.899   1.201 -0.4358 -0.8367 -0.7113
  767WAT      O 2384   0.577   3.333   3.883  0.2156  0.2082 -0.3765
  767WAT     H1 2385   0.601   3.405   3.824  0.5402  0.8485  0.5198
  767WAT     H2 2386   0.584   3.254   3.828  1.3144  0.7015 -0.9792
  768WAT      O 2387   1.092   3.280   1.319 -0.1069  0.0295  0.5600
  768WAT     H1 2388   1.126   3.295   1.231 -0.0936 -0.4819  0.4744
  768WAT     H2 2389   1.089   3.367   1.359 -1.8980  0.5204 -0.5674
  769WAT      O 2390   2.920   2.167   1.035  0.0326 -0.0689 -0.1146
  769WAT     H1 2391   2.966   2.189   0.954 -0.5037  0.7272 -0.2190
  769WAT     H2 2392   2.947   2.077   1.055  2.6884  0.7738  0.5567
  770WAT      O 2393   1.646   1.241   0.922  0.0774  0.3105  0.9539
  770WAT     H1 2394   1.633   1.208   0.833  1.9630  2.2986 -0.1542
  770WAT     H2 2395   1.558   1.242   0.960 -0.9058  0.1060 -1.1402
  771WAT      O 2396   1.539   2.616   0.205 -0.2741  0.2833 -0.4182
  771WAT     H1 2397   1.467   2.562   0.237 -2.4827  2.0142 -2.1642
  771WAT     H2 2398   1.586   2.642   0.285 -1.7175 -0.6951  0.8142
  772WAT      O 2399   2.623   3.467   0.590  0.5310 -0.1724  0.1965
  772WAT     H1 2400   2.607   3.540   0.650 -0.8768  0.8515 -1.3264
  772WAT     H2 2401   2.710   3.483   0.554  1.1547 -0.4997  1.5179
  773WAT      O 2402   2.553   3.911   1.319 -0.8812  0.1544 -0.1483
  773WAT     H1 2403   2.630   3.965   1.303 -0.0164 -0.3445  1.9296
  773WAT     H2 2404   2.534   3.871   1.235  2.2190 -1.0138 -0.4474
  774WAT      O 2405   1.426   3.733   3.904  0.5585 -0.0552  0.1572
  774WAT     H1 2406   1.426   3.699   3.814 -0.2148  0.2873  0.0203
  774WAT     H2 2407   1.489   3.805   3.903  0.9541 -0.3979  0.0286
  775WAT      O 2408   1.880   3.624   2.025 -0.0438  0.1194 -0.0557
  775WAT     H1 2409   1.950   3.688   2.019  0.3815 -0.3942 -0.7343
  775WAT     H2 2410   1.799   3.676   2.031  0.2779  0.7129 -0.7419
  776WAT      O 2411   1.292   0.529   2.191  0.2102 -0.2357 -0.4971
  776WAT     H1 2412   1.383   0.544   2.216  0.3557 -0.2391 -1.0142
  776WAT     H2 2413   1.277   0.589   2.118 -0.1313 -0.4069 -0.5707
  777WAT      O 2414   2.427   1.731   0.019  0.7617  0.7005  0.6609
  777WAT     H1 2415   2.504   1.784   0.038  0.4132  1.8438 -0.9298
  777WAT     H2 2416   2.353   1.786   0.045  0.4308 -0.4057  2.2216
  778WAT      O 2417   0.453   2.028   0.981  0.1591 -0.0089  0.0026
  778WAT     H1 2418   0.410   2.098   1.029  1.2592  0.6380  0.0740
  778WAT     H2 2419   0.400   1.951   0.998 -2.1236  1.1109 -1.5260
  779WAT      O 2420   1.669   3.304   1.322  0.0925  0.0205 -0.1818
  779WAT     H1 2421   1.687   3.229   1.379  0.6757  0.3584  0.0928
  779WAT     H2 2422   1.590   3.280   1.274 -1.2744  0.3267  1.8208
  780WAT      O 2423   2.260   1.905   0.159  0.2231  0.1359 -0.7630
  780WAT     H1 2424   2.257   1.989   0.112  0.3878  1.2615  1.1512
  780WAT     H2 2425   2.168   1.877   0.162 -0.0331  1.0033 -0.1326
  781WAT      O 2426   1.155   1.182   2.099 -0.2533  0.4457 -0.0204
  781WAT     H1 2427   1.065   1.167   2.126 -0.5774  0.6064 -0.9827
  781WAT     H2 2428   1.193   1.094   2.094 -0.1107  0.4173  1.1365
  782WAT      O 2429   3.566   1.411   2.916  0.0455 -0.0239  0.6718
  782WAT     H1 2430   3.570   1.506   2.903  0.5452 -0.3698 -2.3228
  782WAT     H2 2431   3.652   1.379   2.890 -1.0961 -1.5482 -1.5172
  783WAT      O 2432   3.298   1.075   3.350 -0.7098  0.6693 -0.7162
  783WAT     H1 2433   3.319   0.997   3.300  0.9851  0.3347  0.4153
  783WAT     H2 2434   3.266   1.042   3.434 -0.2689  1.1617 -0.3413
  784WAT      O 2435   1.823   1.776   1.984 -0.5444  0.5368  0.0374
  784WAT     H1 2436   1.913   1.800   2.005 -0.0597 -1.8877  1.0301
  784WAT     H2 2437   1.828   1.737   1.897 -0.4395 -0.4349  0.4636
  785WAT      O 2438   2.593   0.765   3.448 -0.0256 -0.0601  0.4354
  785WAT     H1 2439   2.508   0.794   3.480  0.0713  0.7074  0.0371
  785WAT     H2 2440   2.636   0.726   3.525  0.8921  3.2612  1.8244
  786WAT      O 2441   3.287   1.385   2.280  0.0616 -0.0835  0.0738
  786WAT     H1 2442   3.236   1.462   2.258  0.5905  0.3466  0.3322
  786WAT     H2 2443   3.303   1.341   2.196  0.7527  0.7132 -0.2227
  787WAT      O 2444   0.239   3.533   2.642  0.4251 -0.0388 -0.9195
  787WAT     H1 2445   0.185   3.605   2.609 -1.1238 -0.7729 -0.1034
  787WAT     H2 2446   0.187   3.454   2.624  0.8240 -0.6934  0.6522
  788WAT      O 2447   3.390   2.609   3.138  0.5555  0.6628 -0.3002
  788WAT     H1 2448   3.473   2.561   3.139  0.4725  0.4392 -1.9553
  788WAT     H2 2449   3.410   2.692   3.182  0.9908 -0.3690  1.5849
  789WAT      O 2450   1.647   1.015   3.818 -0.3032 -0.2835 -0.0625
  789WAT     H1 2451   1.566   1.047   3.778 -0.3260 -0.8975 -0.5191
  789WAT     H2 2452   1.643   1.046   3.909 -0.4196  0.8222 -0.4339
  790WAT      O 2453   2.289   3.405   1.353 -0.3260  0.0108  0.2992
  790WAT     H1 2454   2.271   3.437   1.441 -1.8034 -0.0926  0.0613
  790WAT     H2 2455   2.364   3.346   1.363  1.7322  2.5655  0.9193
  791WAT      O 2456   2.350   2.727   1.211  0.0895 -0.0303 -0.5201
  791WAT     H1 2457   2.378   2.812   1.177 -3.9572  1.8607  0.2534
  791WAT     H2 2458   2.379   2.727   1.303 -2.3601  2.0415  0.3831
  792WAT      O 2459   0.294   2.721   0.398 -0.1442  0.2359  0.1147
  792WAT     H1 2460   0.348   2.642   0.393 -0.4035  0.0075  0.8724
  792WAT     H2 2461   0.356   2.792   0.380  0.6665  0.0569  1.9842
  793WAT      O 2462   0.921   3.012   1.914 -0.4235  0.5049  0.4044
  793WAT     H1 2463   0.846   3.071   1.915  0.3556  1.5330  1.3300
  793WAT     H2 2464   0.962   3.027   1.829 -1.8820 -0.9321 -0.6049
  794WAT      O 2465   0.937   0.165   0.912 -0.2542  0.0874  0.1601
  794WAT     H1 2466   0.955   0.183   1.005  4.1494 -0.5418 -0.3653
  794WAT     H2 2467   0.938   0.252   0.871 -2.2438  0.3713  0.6122
  795WAT      O 2468   2.665   0.909   1.606  0.2730 -0.4235  0.3529
  795WAT     H1 2469   2.718   0.830   1.614  1.6238  0.6387  3.1331
  795WAT     H2 2470   2.592   0.896   1.667 -1.7629 -1.0549 -2.0274
  796WAT      O 2471   3.124   3.997   1.263 -0.1794 -0.0759 -0.2240
  796WAT     H1 2472   3.206   3.955   1.236 -0.0367 -0.3511  0.6046
  796WAT     H2 2473   3.150   4.059   1.330 -0.5633  0.4111 -0.5170
  797WAT      O 2474   2.653   0.595   3.677 -0.3262  0.4080 -0.2559
  797WAT     H1 2475   2.704   0.541   3.737  0.2195  1.3254  0.1262
  797WAT     H2 2476   2.562   0.575   3.698 -0.1877  1.5220  1.6973
  798WAT      O 2477   2.082   1.801   2.000 -0.3201 -0.1184 -0.2495
  798WAT     H1 2478   2.109   1.890   1.980 -0.2971 -0.2031 -0.6057
  798WAT     H2 2479   2.151   1.767   2.058 -0.0050 -0.1132 -0.6208
  799WAT      O 2480   1.623   0.455   1.240 -0.0818 -0.0070 -0.0610
  799WAT     H1 2481   1.576   0.374   1.226  1.3698 -0.7819 -0.6865
  799WAT     H2 2482   1.678   0.438   1.317  1.0912 -0.0477 -0.8877
  800WAT      O 2483   2.852   2.216   3.662 -0.0759 -0.5315 -0.4340
  800WAT     H1 2484   2.841   2.143   3.723 -3.3926 -0.8621 -1.2394
  800WAT     H2 2485   2.871   2.174   3.578  2.0269 -0.1866 -0.1872
  801WAT      O 2486   2.439   2.079   2.742  0.0443 -0.4113 -0.3546
  801WAT     H1 2487   2.406   2.098   2.829  0.0446 -0.9599 -0.2318
  801WAT     H2 2488   2.515   2.022   2.757 -0.3860 -1.1002 -0.7407
  802WAT      O 2489   3.535   3.982   2.186 -0.7885  0.5721  0.3830
  802WAT     H1 2490   3.482   4.035   2.245 -1.5189 -0.9276  1.1205
  802WAT     H2 2491   3.606   3.948   2.241 -0.4651  0.5869 -0.0217
  803WAT      O 2492   3.158   3.892   2.761 -0.1952 -0.3074 -0.2105
  803WAT     H1 2493   3.138   3.799   2.765 -1.5238 -0.0219  0.3254
  803WAT     H2 2494   3.073   3.935   2.761  0.3572  0.8798 -1.6918
  804WAT      O 2495   2.725   2.770   1.621 -0.0345 -0.1588  0.6488
  804WAT     H1 2496   2.732   2.788   1.714 -0.4218  0.9827  0.4727
  804WAT     H2 2497   2.695   2.680   1.616  1.2164 -0.6524  1.5989
  805WAT      O 2498   2.918   4.089   1.089  0.3530 -0.2853  0.5673
  805WAT     H1 2499   2.972   4.014   1.115  0.8986  0.3347  1.2502
  805WAT     H2 2500   2.925   4.150   1.162  0.9745  1.0055 -0.5302
  806WAT      O 2501   0.819   3.667   0.615  0.4107  0.1011  0.0561
  806WAT     H1 2502   0.800   3.585   0.569 -0.3037  1.6286 -2.5271
  806WAT     H2 2503   0.740   3.684   0.666  0.3153 -0.4588  0.1063
  807WAT      O 2504   1.801   1.075   0.643  0.1927 -0.2249 -0.3338
  807WAT     H1 2505   1.888   1.083   0.682  0.1539 -2.7823  0.4562
  807WAT     H2 2506   1.770   0.988   0.669 -1.3198 -0.6911 -3.1899
  808WAT      O 2507   3.238   1.545   1.742 -0.1490  0.3057  0.1494
  808WAT     H1 2508   3.150   1.572   1.716  0.4801 -0.5906 -3.2909
  808WAT     H2 2509   3.295   1.617   1.716  0.4860 -0.4582 -0.6346
  809WAT      O 2510   0.147   1.405   2.306  0.1298  0.0950 -0.0945
  809WAT     H1 2511   0.186   1.361   2.230  0.1025  0.1319 -0.1297
  809WAT     H2 2512   0.084   1.466   2.269 -0.5802 -0.5681 -0.0036
  810WAT      O 2513   3.370   0.843   0.985 -0.1474  0.1362  0.2183
  810WAT     H1 2514   3.342   0.891   1.062  1.3972  1.9271 -0.2649
  810WAT     H2 2515   3.452   0.885   0.958  0.0220 -1.2286 -1.6745
  811WAT      O 2516   0.902   2.382   1.617 -0.0116  0.5204 -0.5967
  811WAT     H1 2517   0.845   2.342   1.551  0.0461  0.0501 -0.3614
  811WAT     H2 2518   0.843   2.409   1.687 -0.0609  0.9351 -0.7904
  812WAT      O 2519   1.162   3.869   0.322  0.5077 -0.3053  0.0718
  812WAT     H1 2520   1.180   3.829   0.237 -0.8473 -0.2043 -0.2856
  812WAT     H2 2521   1.224   3.942   0.328 -0.9966  1.2337 -1.9448
  813WAT      O 2522   0.730   1.146   1.919 -0.2665  0.2802  0.4217
  813WAT     H1 2523   0.795   1.102   1.974  0.7198  1.4852  0.2733
  813WAT     H2 2524   0.670   1.076   1.893  0.1548 -0.6117  1.7119
  814WAT      O 2525   3.185   1.456   1.398  0.3647 -0.1238  0.3144
  814WAT     H1 2526   3.215   1.377   1.442  2.1694 -0.4531 -1.3560
  814WAT     H2 2527   3.265   1.509   1.388  0.0643 -0.0333 -2.3563
  815WAT      O 2528   1.970   2.693   1.379  0.2864  0.3845 -1.0355
  815WAT     H1 2529   2.020   2.656   1.306 -0.4216 -0.1906 -1.2351
  815WAT     H2 2530   1.885   2.649   1.375 -0.3840  1.6256 -0.9210
  816WAT      O 2531   2.719   3.407   2.488 -0.1070 -0.3720 -0.0303
  816WAT     H1 2532   2.810   3.382   2.474  0.2967 -0.4188  2.1862
  816WAT     H2 2533   2.690   3.350   2.560 -1.9090 -0.3851 -0.7158
  817WAT      O 2534   2.009   1.918   2.786  0.0287 -0.0110  0.0283
  817WAT     H1 2535   2.069   1.993   2.789 -0.2910  0.3997 -2.0100
  817WAT     H2 2536   2.054   1.855   2.730  0.2482 -1.3405  1.6523
  818WAT      O 2537   3.405   2.733   1.716  0.0614  0.1733 -0.0304
  818WAT     H1 2538   3.372   2.724   1.806  1.3694  1.5059  0.6241
  818WAT     H2 2539   3.393   2.646   1.678 -1.6376 -0.1123  1.0154
  819WAT      O 2540   0.925   0.984   3.416 -0.4772  0.1243  0.4736
  819WAT     H1 2541   0.959   1.017   3.333 -0.2017 -1.1836  0.0419
  819WAT     H2 2542   0.990   1.010   3.481  1.3152 -2.0593 -0.2978
  820WAT      O 2543   2.685   0.115   1.973 -0.4136 -0.6955  0.1353
  820WAT     H1 2544   2.608   0.099   2.027 -0.2320 -0.9235  0.3319
  820WAT     H2 2545   2.653   0.169   1.901 -0.8651 -1.2050 -0.0589
  821WAT      O 2546   2.080   2.484   1.867 -0.3737  0.2310  0.0598
  821WAT     H1 2547   2.008   2.528   1.911  0.2543  0.7058  0.6386
  821WAT     H2 2548   2.119   2.428   1.934  0.8099  1.2309  0.2544
  822WAT      O 2549   2.457   3.683   1.673 -0.2219 -0.1939  0.0077
  822WAT     H1 2550   2.407   3.657   1.751 -0.2805 -1.9175 -0.5629
  822WAT     H2 2551   2.547   3.692   1.705 -0.3594 -0.1964  0.4070
  823WAT      O 2552   0.893   1.173   0.210 -0.0179  0.5482 -0.5742
  823WAT     H1 2553   0.986   1.153   0.222 -0.3948 -0.7611  0.2640
  823WAT     H2 2554   0.875   1.147   0.120 -0.0701 -1.2899 -0.0652
  824WAT      O 2555   0.608   3.514   3.098 -0.1200  0.3447  0.0271
  824WAT     H1 2556   0.517   3.537   3.119  0.2310  1.7703  0.0666
  824WAT     H2 2557   0.603   3.468   3.014 -0.8464  0.6395 -0.0935
  825WAT      O 2558   2.036   0.640   3.404  0.7783 -0.3198  0.2868
  825WAT     H1 2559   2.054   0.670   3.493  0.8122 -1.4669  0.6713
  825WAT     H2 2560   2.119   0.651   3.358  1.3007 -1.4990  0.9061
  826WAT      O 2561   1.080   4.080   1.328 -0.6670 -0.8155  0.1561
  826WAT     H1 2562   1.054   4.032   1.406  0.3112 -1.1720  0.2815
  826WAT     H2 2563   1.045   4.029   1.255 -1.0904 -0.7938  0.3439
  827WAT      O 2564   3.043   2.829   0.914 -0.1855 -0.4238 -0.1532
  827WAT     H1 2565   3.020   2.921   0.904 -0.0328 -0.4654 -0.9694
  827WAT     H2 2566   3.034   2.811   1.008  1.2685  0.8303  0.2724
  828WAT      O 2567   3.056   0.679   2.919  0.2221  0.1448 -0.0770
  828WAT     H1 2568   2.961   0.691   2.914  0.4517  2.7173  0.3990
  828WAT     H2 2569   3.074   0.609   2.855 -1.8635  0.2220 -0.8485
  829WAT      O 2570   0.162   1.011   0.012 -0.5123 -0.8530 -0.0882
  829WAT     H1 2571   0.096   1.046   0.072  0.1806  0.7809 -0.2194
  829WAT     H2 2572   0.204   0.940   0.060 -2.6184 -2.2075 -0.1655
  830WAT      O 2573   1.152   0.889   2.360  0.2589 -0.1871 -0.6276
  830WAT     H1 2574   1.126   0.798   2.372 -0.4002  0.0902  0.0657
  830WAT     H2 2575   1.191   0.891   2.272 -0.5282 -0.9512 -1.0014
  831WAT      O 2576   1.623   2.635   1.480 -0.6485  0.4799  0.2399
  831WAT     H1 2577   1.635   2.550   1.437 -0.7839  0.9704 -0.7891
  831WAT     H2 2578   1.618   2.698   1.408 -1.4493  1.2591  0.9569
  832WAT      O 2579   0.037   2.609   3.401  0.2869 -0.6007  0.0464
  832WAT     H1 2580   0.024   2.649   3.315  0.8502  1.4183  0.8453
  832WAT     H2 2581   0.132   2.614   3.416  0.0513  0.4131  1.3727
  833WAT      O 2582   2.204   1.286   2.545 -0.3402 -0.0160 -0.2403
  833WAT     H1 2583   2.148   1.355   2.581 -0.1829 -0.1703  0.3122
  833WAT     H2 2584   2.188   1.289   2.451 -1.2522 -0.0340 -0.0986
  834WAT      O 2585   2.270   3.462   0.436 -0.1987  0.0142 -0.4569
  834WAT     H1 2586   2.193   3.406   0.423  0.6796 -1.0622 -1.2016
  834WAT     H2 2587   2.321   3.418   0.504  0.6667 -0.2887 -1.2818
  835WAT      O 2588   1.916   0.188   3.388  0.4201  0.5518 -0.4824
  835WAT     H1 2589   1.866   0.269   3.387 -0.4375  0.1092  1.3882
  835WAT     H2 2590   1.920   0.161   3.296  2.0761  3.4392 -1.4055
  836WAT      O 2591   0.995   1.663   1.522 -0.4741  0.4369  0.0068
  836WAT     H1 2592   1.073   1.639   1.571 -0.7266  1.6569  1.0852
  836WAT     H2 2593   1.009   1.628   1.434 -0.4527 -2.7292  1.1490
  837WAT      O 2594   2.458   1.650   2.388  0.8499  0.8219  0.7329
  837WAT     H1 2595   2.368   1.625   2.366  0.3986  2.0089  1.1761
  837WAT     H2 2596   2.490   1.695   2.309  0.9837  0.6054  0.6615
  838WAT      O 2597   2.744   4.020   2.292 -0.6410  0.4052  0.0826
  838WAT     H1 2598   2.728   4.114   2.304 -1.8459  0.0077  2.0787
  838WAT     H2 2599   2.767   3.989   2.380  1.8945 -0.8248 -0.9410
  839WAT      O 2600   1.643   2.327   2.421 -0.0662  0.3868  0.7160
  839WAT     H1 2601   1.640   2.293   2.332  0.6045 -2.1779  1.5767
  839WAT     H2 2602   1.552   2.353   2.440 -0.6113 -0.8388 -0.0950
  840WAT      O 2603   2.308   0.071   1.517  0.0342  0.1708  0.1022
  840WAT     H1 2604   2.234   0.014   1.498 -0.5150  1.6840 -2.7974
  840WAT     H2 2605   2.312   0.131   1.443  0.9198  3.5805  2.6578
  841WAT      O 2606   0.553   4.045   2.079  0.4262 -0.1216 -0.2831
  841WAT     H1 2607   0.470   4.004   2.056  0.5159 -1.3215  1.3313
  841WAT     H2 2608   0.555   4.126   2.028 -1.5944 -0.2133 -0.5908
  842WAT      O 2609   2.856   3.612   3.399  0.0421  0.2647  0.2607
  842WAT     H1 2610   2.836   3.706   3.400  0.3492  0.3419 -0.4311
  842WAT     H2 2611   2.888   3.595   3.310  2.8770  0.0896  1.2340
  843WAT      O 2612   3.330   0.836   3.211 -0.2177  0.5102 -0.6682
  843WAT     H1 2613   3.280   0.853   3.132 -0.3592  2.3965 -0.2242
  843WAT     H2 2614   3.320   0.743   3.227  0.7151 -0.1524 -3.4584
  844WAT      O 2615   1.572   0.424   0.303  0.2516  0.4462  0.1532
  844WAT     H1 2616   1.666   0.410   0.291  0.0544  0.3053 -1.3613
  844WAT     H2 2617   1.531   0.342   0.277 -0.4654  1.4495 -2.0997
  845WAT      O 2618   0.574   2.648   1.526  0.1032 -0.2452 -0.1929
  845WAT     H1 2619   0.585   2.611   1.614  1.0887  0.7950  0.1387
  845WAT     H2 2620   0.479   2.645   1.512 -0.2446  0.9161  1.5328
  846WAT      O 2621   1.930   0.045   3.154 -0.0021 -0.0357 -0.5950
  846WAT     H1 2622   1.955   0.118   3.099 -0.5848  0.6596  0.0509
  846WAT     H2 2623   1.842   0.021   3.125 -0.0454 -0.1030 -0.4106
  847WAT      O 2624   0.362   3.551   3.183 -0.1833 -0.2010 -0.2360
  847WAT     H1 2625   0.278   3.557   3.138 -0.4765  0.0447  0.3404
  847WAT     H2 2626   0.344   3.577   3.273  0.7993  1.3693 -0.4499
  848WAT      O 2627   0.753   2.201   1.047  0.3137  0.4123 -0.2143
  848WAT     H1 2628   0.717   2.266   0.987  0.0429 -0.4750 -1.0365
  848WAT     H2 2629   0.767   2.249   1.129 -1.4876  1.1110 -0.2700
  849WAT      O 2630   1.799   0.072   2.065 -0.0254  0.2363 -0.0024
  849WAT     H1 2631   1.844   0.062   2.149  0.8046 -0.1289 -0.4713
  849WAT     H2 2632   1.795  -0.017   2.029 -0.2772  0.4008 -0.3936
  850WAT      O 2633   0.904   3.629   0.325  0.2970 -0.0928 -0.4349
  850WAT     H1 2634   0.822   3.614   0.278  0.4207 -0.0451 -0.6673
  850WAT     H2 2635   0.972   3.607   0.262  0.4609 -0.6777 -0.0520
  851WAT      O 2636   2.282   1.264   0.507  0.3722  0.2495 -0.4565
  851WAT     H1 2637   2.253   1.336   0.562  0.9267  0.4298 -0.3974
  851WAT     H2 2638   2.330   1.206   0.566  0.4721  0.1563 -0.6277
  852WAT      O 2639   0.055   2.481   0.090 -0.3696  0.8182 -0.5628
  852WAT     H1 2640   0.081   2.392   0.112  0.8861  1.9058  3.2111
  852WAT     H2 2641  -0.022   2.471   0.034 -0.1716 -2.6021 -0.4159
  853WAT      O 2642   2.528   1.490   1.708 -0.1287 -0.5742 -0.3346
  853WAT     H1 2643   2.499   1.400   1.723  0.5932 -0.6444  0.6614
  853WAT     H2 2644   2.616   1.481   1.671  0.3717 -0.2590  0.7648
  854WAT      O 2645   3.318   3.359   1.015  0.2741  0.2993  0.6282
  854WAT     H1 2646   3.338   3.371   1.108  0.2984  0.5627  0.5907
  854WAT     H2 2647   3.285   3.445   0.987 -1.0029 -0.1303  0.7166
  855WAT      O 2648   0.299   0.884   1.839  0.1414  0.5950  0.2801
  855WAT     H1 2649   0.262   0.836   1.913 -1.0888  0.2545 -0.5180
  855WAT     H2 2650   0.309   0.973   1.871 -0.1412  0.4007  0.9342
  856WAT      O 2651   1.472   3.993   3.688 -0.1397  0.1169  0.1345
  856WAT     H1 2652   1.556   4.032   3.714  0.1809 -0.9270  0.7295
  856WAT     H2 2653   1.427   4.063   3.640  0.9058  0.8175  0.1377
  857WAT      O 2654   3.194   2.087   0.379  0.0014  0.3678 -0.7886
  857WAT     H1 2655   3.175   2.020   0.314 -0.3034  1.0057 -1.3717
  857WAT     H2 2656   3.246   2.152   0.332 -0.1615  0.8017 -0.3757
  858WAT      O 2657   0.979   2.847   3.509 -0.2351 -0.0220 -0.0625
  858WAT     H1 2658   0.895   2.884   3.482  0.2324  0.3712 -1.0278
  858WAT     H2 2659   1.041   2.919   3.499 -0.0709  0.2877  2.4953
  859WAT      O 2660   1.871   2.489   3.579  0.0173 -0.2115  0.0578
  859WAT     H1 2661   1.835   2.441   3.654  0.2914  0.6164  0.7381
  859WAT     H2 2662   1.892   2.576   3.614  1.0891 -0.1302 -0.7277
  860WAT      O 2663   2.932   2.112   3.090  0.1779 -0.4857  0.9090
  860WAT     H1 2664   2.839   2.118   3.070  0.5652 -2.9671 -2.4720
  860WAT     H2 2665   2.938   2.036   3.148  0.1371 -0.8202  0.4821
  861WAT      O 2666   1.406   0.660   1.262 -0.6523  0.1270 -0.4627
  861WAT     H1 2667   1.461   0.582   1.250  0.1615  0.5619  0.3284
  861WAT     H2 2668   1.455   0.715   1.323 -1.0066  1.4643 -1.3355
  862WAT      O 2669   2.649   0.199   3.397  0.3921  0.3578 -0.1892
  862WAT     H1 2670   2.558   0.225   3.381  0.5887  0.1207 -1.8340
  862WAT     H2 2671   2.674   0.149   3.319  1.7075 -0.2161  0.5679
  863WAT      O 2672   0.064   2.100   3.050  0.8246  0.5322  0.2439
  863WAT     H1 2673   0.057   2.195   3.039  2.0739  0.7629  1.2708
  863WAT     H2 2674  -0.027   2.069   3.046  0.5494  1.3693 -3.0931
  864WAT      O 2675   0.339   3.292   0.627  0.1033 -0.1336  0.3043
  864WAT     H1 2676   0.416   3.244   0.658  0.0199 -0.3811  0.1256
  864WAT     H2 2677   0.292   3.230   0.572 -0.0605  0.1178  0.1575
  865WAT      O 2678   0.409   2.063   1.325  0.4041  0.3488 -0.4006
  865WAT     H1 2679   0.378   2.040   1.237  1.3263  0.5435 -0.7871
  865WAT     H2 2680   0.345   2.023   1.383  0.4256 -0.8249 -1.1333
  866WAT      O 2681   1.648   3.571   0.368  0.2599 -0.1018  0.2900
  866WAT     H1 2682   1.625   3.478   0.371 -1.3187  0.2794  2.0720
  866WAT     H2 2683   1.622   3.599   0.280  0.9308 -1.3600 -0.3348
  867WAT      O 2684   1.821   2.499   0.560  0.1601 -0.4058  0.1571
  867WAT     H1 2685   1.727   2.511   0.571  0.2479  0.4090  0.0502
  867WAT     H2 2686   1.854   2.585   0.535  0.5906 -1.1711 -2.2398
  868WAT      O 2687   2.185   3.374   2.117  0.4035  0.4440  0.1972
  868WAT     H1 2688   2.185   3.469   2.116  1.6362  0.4828  1.3103
  868WAT     H2 2689   2.277   3.350   2.111  0.0761 -0.6978 -0.5884
  869WAT      O 2690   0.937   0.280   1.140 -0.3809  0.3476 -0.0676
  869WAT     H1 2691   1.027   0.308   1.160 -0.4133  0.4576 -0.0753
  869WAT     H2 2692   0.882   0.351   1.173 -0.4462  0.4428 -0.3735
  870WAT      O 2693   0.507   2.674   0.858  0.0936  0.6690  0.7161
  870WAT     H1 2694   0.565   2.692   0.784  0.5803  0.1633  0.9690
  870WAT     H2 2695   0.461   2.594   0.833 -0.5397  1.0965  0.4937
  871WAT      O 2696   0.163   0.023   2.722  0.4648  0.4124 -0.2321
  871WAT     H1 2697   0.083  -0.023   2.695  1.0490 -1.4368  0.9977
  871WAT     H2 2698   0.131   0.106   2.759 -1.0034 -0.5877  0.9006
  872WAT      O 2699   2.201   2.380   3.006 -0.0957 -0.2284 -0.0473
  872WAT     H1 2700   2.208   2.342   3.093 -0.9278  1.9432  1.0340
  872WAT     H2 2701   2.281   2.432   2.995  0.4241 -1.1722 -0.9770
  873WAT      O 2702   2.088   3.681   3.595 -0.2083 -0.1814 -0.3965
  873WAT     H1 2703   2.142   3.747   3.553  0.0794 -0.2440 -0.1282
  873WAT     H2 2704   2.151   3.621   3.636 -0.4502 -0.8736 -1.0216
  874WAT      O 2705   2.333   3.250   3.529  0.9118  0.4201  0.2653
  874WAT     H1 2706   2.317   3.156   3.542  1.7535  0.1756 -0.3943
  874WAT     H2 2707   2.415   3.267   3.574 -0.0035  1.1946  1.7201
  875WAT      O 2708   2.291   2.958   0.862  0.5746 -0.3919 -0.1778
  875WAT     H1 2709   2.379   2.991   0.844  1.2672 -2.1150 -0.1687
  875WAT     H2 2710   2.279   2.970   0.956  1.1507 -0.9159 -0.0329
  876WAT      O 2711   1.939   1.603   1.633 -0.5324 -0.3560 -0.0707
  876WAT     H1 2712   2.010   1.571   1.689 -0.9724 -0.1961  0.5863
  876WAT     H2 2713   1.980   1.668   1.577  0.3323 -1.8428 -1.2497
  877WAT      O 2714   2.858   0.386   2.371 -0.0270  0.0983  0.0065
  877WAT     H1 2715   2.793   0.404   2.438  1.7689 -0.6111  2.0472
  877WAT     H2 2716   2.916   0.321   2.410  0.0282 -1.8351 -2.9775
  878WAT      O 2717   3.378   1.703   2.416 -0.0522 -0.8851 -0.1134
  878WAT     H1 2718   3.391   1.759   2.339 -0.7521 -1.0004 -0.3221
  878WAT     H2 2719   3.341   1.762   2.482 -3.7262 -1.6326 -1.2809
  879WAT      O 2720   3.035   0.491   2.705 -0.5763  0.3602  0.4172
  879WAT     H1 2721   2.963   0.543   2.670  0.1660  1.0214 -0.1743
  879WAT     H2 2722   2.997   0.406   2.723 -1.4077  0.5661 -0.3034
  880WAT      O 2723   0.354   2.097   0.332  0.3642 -0.2997  0.1531
  880WAT     H1 2724   0.342   2.111   0.238  0.9500 -0.2036  0.0868
  880WAT     H2 2725   0.338   2.004   0.345 -1.3375 -0.0247  0.2269
  881WAT      O 2726   2.612   1.097   1.913  0.2858  0.4859  0.4174
  881WAT     H1 2727   2.672   1.027   1.936  1.5207  0.6910 -1.8956
  881WAT     H2 2728   2.660   1.178   1.932 -1.2580  0.8548  3.4141
  882WAT      O 2729   1.545   0.777   3.311  0.4297 -0.8917 -0.6674
  882WAT     H1 2730   1.615   0.776   3.377  0.3236 -1.4911 -0.5587
  882WAT     H2 2731   1.563   0.700   3.256  0.4169 -0.4937 -1.2343
  883WAT      O 2732   2.422   2.209   0.495  0.4378  0.6857 -0.3120
  883WAT     H1 2733   2.403   2.122   0.459  2.3336  0.5101 -0.9830
  883WAT     H2 2734   2.517   2.214   0.497  0.4045  1.7813  2.1360
  884WAT      O 2735   3.159   0.404   0.067 -0.5920 -0.1511 -0.1448
  884WAT     H1 2736   3.152   0.431   0.158 -0.7959 -0.3530 -0.0998
  884WAT     H2 2737   3.243   0.439   0.038 -0.5071 -0.1235  0.1332
  885WAT      O 2738   3.235   1.798   3.156  0.2808  0.5217 -0.4698
  885WAT     H1 2739   3.179   1.721   3.164 -0.8609  1.2995 -0.8665
  885WAT     H2 2740   3.323   1.765   3.176 -0.1943 -0.8636 -0.5660
  886WAT      O 2741   1.751   0.223   1.673  0.0847  0.1687 -0.2471
  886WAT     H1 2742   1.672   0.172   1.690  1.0138 -0.9096  1.1183
  886WAT     H2 2743   1.817   0.157   1.648  0.7691  0.9513 -0.5471
  887WAT      O 2744   1.068   2.323   0.622  0.0629 -0.7724  0.2286
  887WAT     H1 2745   1.042   2.241   0.665  1.0693 -0.8296  0.7526
  887WAT     H2 2746   1.013   2.327   0.544 -1.4285 -0.9548  1.2098
  888WAT      O 2747   0.815   2.270   0.397 -0.4261  0.5063 -0.1158
  888WAT     H1 2748   0.793   2.287   0.489  0.5192  0.3255  0.1549
  888WAT     H2 2749   0.760   2.196   0.372 -0.6810  0.5498  0.3066
  889WAT      O 2750   2.989   1.929   1.796 -0.2546  0.6747  0.3984
  889WAT     H1 2751   2.927   1.996   1.825 -0.7776  0.1825  0.4210
  889WAT     H2 2752   2.940   1.876   1.734  0.3423  0.6679 -0.0768
  890WAT      O 2753   1.169   1.094   1.157  0.1718 -0.1833 -0.8635
  890WAT     H1 2754   1.093   1.126   1.206  0.9349  2.1840 -1.1323
  890WAT     H2 2755   1.130   1.048   1.081 -1.0160  1.1167 -1.0820
  891WAT      O 2756   3.381   0.001   1.683 -0.3275 -0.2480 -0.0104
  891WAT     H1 2757   3.436   0.079   1.671  0.7580 -0.9089  0.5348
  891WAT     H2 2758   3.326  -0.001   1.604  0.9931  0.0067 -0.9811
  892WAT      O 2759   0.911   2.095   3.084  0.3035 -0.3467 -0.4151
  892WAT     H1 2760   0.825   2.124   3.052  1.0739 -0.2871 -2.6229
  892WAT     H2 2761   0.935   2.024   3.024  0.6586 -2.2040  1.8112
  893WAT      O 2762   0.488   1.303   0.589 -0.2316 -0.5888  0.0223
  893WAT     H1 2763   0.432   1.360   0.642  1.4044  1.3918 -0.2344
  893WAT     H2 2764   0.470   1.329   0.498  0.2674 -0.7121 -0.1161
  894WAT      O 2765   3.150   2.049   0.104  0.0281 -0.2378  0.3583
  894WAT     H1 2766   3.091   2.113   0.064 -0.4644 -0.3295  0.9228
  894WAT     H2 2767   3.237   2.078   0.078 -0.1290  1.1249  1.2491
  895WAT      O 2768   2.192   0.204   3.457  0.2926 -0.4614  0.1002
  895WAT     H1 2769   2.100   0.187   3.438  0.3774 -0.4432 -0.3378
  895WAT     H2 2770   2.212   0.148   3.533 -0.7802  1.4781  1.9240
  896WAT      O 2771   0.609   0.652   1.555  0.2647 -0.2622 -0.1303
  896WAT     H1 2772   0.632   0.704   1.478  1.8329  0.8050  1.0036
  896WAT     H2 2773   0.633   0.562   1.531  0.3496 -0.0177 -1.0096
  897WAT      O 2774   2.113   1.762   2.579 -0.4420  0.4269 -0.1773
  897WAT     H1 2775   2.122   1.712   2.497  0.6575 -0.2598  0.3332
  897WAT     H2 2776   2.172   1.837   2.567  0.8398 -0.4232  0.4976
  898WAT      O 2777   0.603   0.860   3.042 -0.2551 -0.3295  0.7124
  898WAT     H1 2778   0.633   0.950   3.037 -0.8176 -0.1362  0.6868
  898WAT     H2 2779   0.595   0.832   2.950  0.0654 -0.4539  0.7232
  899WAT      O 2780   3.664   2.520   0.573 -0.0195 -0.0021  0.1294
  899WAT     H1 2781   3.589   2.464   0.553  0.0320  0.4525 -1.4005
  899WAT     H2 2782   3.730   2.496   0.509  0.4965  0.8585  0.3291
  900WAT      O 2783   2.857   0.362   3.520 -0.0200  0.1608  0.3244
  900WAT     H1 2784   2.865   0.431   3.454  0.7339  0.6880  0.9523
  900WAT     H2 2785   2.786   0.307   3.488  0.4581  0.3009 -1.0224
  901WAT      O 2786   2.102   1.060   0.727 -0.2511  0.4352 -0.1896
  901WAT     H1 2787   2.095   1.094   0.817  0.3950  1.4274 -0.4929
  901WAT     H2 2788   2.165   1.119   0.685 -0.0439 -0.4295 -1.1070
  902WAT      O 2789   1.622   1.147   1.569  0.2593  0.3218  0.2858
  902WAT     H1 2790   1.688   1.113   1.509 -0.3374 -0.4582  0.0544
  902WAT     H2 2791   1.653   1.235   1.592  0.9835  0.2561 -0.4068
  903WAT      O 2792   1.763   3.463   1.062  0.6663  0.1865  0.0754
  903WAT     H1 2793   1.743   3.426   1.148 -0.3752 -1.6862 -0.9146
  903WAT     H2 2794   1.856   3.484   1.066  0.9423 -1.1250  1.2406
  904WAT      O 2795   0.548   0.377   3.115 -0.6801 -0.2288 -0.2995
  904WAT     H1 2796   0.490   0.444   3.151  1.0618 -0.3311  3.0886
  904WAT     H2 2797   0.627   0.425   3.090  0.2870 -0.8559  1.4390
  905WAT      O 2798   1.217   3.299   2.016  0.0720  0.4713 -0.0965
  905WAT     H1 2799   1.246   3.373   1.963 -1.3937  0.3284 -1.1753
  905WAT     H2 2800   1.122   3.305   2.015 -0.1556 -1.9618 -1.1027
  906WAT      O 2801   2.374   0.154   3.894  0.1325  1.1378 -0.0332
  906WAT     H1 2802   2.459   0.133   3.854 -0.6415  0.6966 -1.5272
  906WAT     H2 2803   2.369   0.250   3.888  1.8810  1.5405  3.0454
  907WAT      O 2804   3.615   1.697   3.778  0.2587  0.1993 -0.1750
  907WAT     H1 2805   3.640   1.669   3.690  2.6567 -1.0274  0.8103
  907WAT     H2 2806   3.522   1.673   3.785  0.8085 -2.7226 -1.2905
  908WAT      O 2807   1.314   1.746   3.917  0.1857 -0.4787  0.1659
  908WAT     H1 2808   1.326   1.803   3.841 -0.1354  0.8413  1.0707
  908WAT     H2 2809   1.220   1.734   3.923 -0.0540  1.5977  1.8257
  909WAT      O 2810   1.256   1.334   1.783 -0.2875  0.3034  0.0640
  909WAT     H1 2811   1.296   1.251   1.756 -0.4071 -0.5314  2.2638
  909WAT     H2 2812   1.325   1.399   1.771 -0.0529 -0.1609 -1.2708
  910WAT      O 2813   1.931   1.222   3.133  0.2622 -0.5813  0.0489
  910WAT     H1 2814   1.889   1.146   3.174  0.3740  0.1399  1.5491
  910WAT     H2 2815   1.858   1.269   3.091  0.0951 -1.1502 -0.3136
  911WAT      O 2816   0.123   2.644   2.382 -1.0402 -0.6759  0.3727
  911WAT     H1 2817   0.053   2.652   2.448 -0.3747 -1.2102  1.1573
  911WAT     H2 2818   0.076   2.633   2.300 -1.9477 -2.9834  1.1057
  912WAT      O 2819   3.599   0.574   2.403  0.1116  0.2162  0.2979
  912WAT     H1 2820   3.542   0.503   2.375  0.3559 -0.5241  1.6087
  912WAT     H2 2821   3.542   0.651   2.405 -0.5392 -0.2592  0.3882
  913WAT      O 2822   3.248   3.369   3.203 -0.6896  0.2995  0.2217
  913WAT     H1 2823   3.217   3.358   3.293  1.2575 -1.1289  0.8004
  913WAT     H2 2824   3.298   3.451   3.205 -1.1555  0.5898  0.2581
  914WAT      O 2825   3.174   3.329   0.189  0.0328  0.0694 -0.6178
  914WAT     H1 2826   3.213   3.379   0.260 -0.0040 -0.4263 -0.2392
  914WAT     H2 2827   3.100   3.381   0.160  0.3952  0.5540 -0.6865
  915WAT      O 2828   2.428   0.123   2.867 -0.0916  0.4123  0.4492
  915WAT     H1 2829   2.356   0.141   2.806  0.3568  0.8944  0.0596
  915WAT     H2 2830   2.385   0.109   2.951 -0.5738  1.9684  0.4984
  916WAT      O 2831   3.509   0.431   1.337 -0.5431  0.0848 -0.6454
  916WAT     H1 2832   3.534   0.517   1.371  1.0382 -0.5458 -0.1142
  916WAT     H2 2833   3.532   0.435   1.244  1.2731 -0.3329 -0.2564
  917WAT      O 2834   2.592   1.837   1.027 -0.1701  0.2156 -0.1577
  917WAT     H1 2835   2.606   1.906   1.092  0.7084  0.0639 -0.1709
  917WAT     H2 2836   2.649   1.861   0.954 -0.5118 -0.0663 -0.5209
  918WAT      O 2837   2.772   0.682   2.981 -0.3385  0.0412  0.0461
  918WAT     H1 2838   2.779   0.749   3.049 -1.0093 -0.4853  0.6557
  918WAT     H2 2839   2.740   0.605   3.027 -2.0583  0.0358 -1.0712
  919WAT      O 2840   2.883   3.531   0.485  0.1264  0.0387  0.0654
  919WAT     H1 2841   2.946   3.559   0.551  1.3828 -1.4221 -0.4432
  919WAT     H2 2842   2.887   3.597   0.416 -0.5731  1.1230  1.0255
  920WAT      O 2843   3.664   0.987   3.525  0.8703 -0.4550  0.2900
  920WAT     H1 2844   3.596   0.923   3.504  0.9488 -0.8820  1.2755
  920WAT     H2 2845   3.660   0.997   3.620  0.7434  1.1526  0.1496
  921WAT      O 2846   3.050   3.555   2.261  0.0194 -0.0117 -0.1402
  921WAT     H1 2847   2.996   3.541   2.184 -1.8775  2.3113  0.6543
  921WAT     H2 2848   3.023   3.486   2.322 -1.1427  0.3350 -0.2392
  922WAT      O 2849   0.131   2.416   0.404 -0.1416  0.2298 -0.0915
  922WAT     H1 2850   0.226   2.429   0.395  0.0083  1.6226  2.6560
  922WAT     H2 2851   0.108   2.364   0.327  2.6462  0.7732 -1.4639
  923WAT      O 2852   3.629   2.650   0.825  0.4994 -0.5105  0.1288
  923WAT     H1 2853   3.600   2.589   0.757  1.0799 -0.9074  0.2314
  923WAT     H2 2854   3.595   2.615   0.907 -1.3177  0.6570 -0.0599
  924WAT      O 2855   1.997   2.566   2.942 -0.6394  0.4857  0.4341
  924WAT     H1 2856   2.005   2.583   3.036 -2.6513  0.2281  0.6908
  924WAT     H2 2857   2.034   2.478   2.931 -0.7192  0.3720  1.0408
  925WAT      O 2858   0.463   0.044   3.522  0.4194 -0.3490  0.6744
  925WAT     H1 2859   0.481   0.081   3.436 -0.8359  1.9602  1.3327
  925WAT     H2 2860   0.549   0.021   3.557  0.9160 -2.0515 -1.4136
  926WAT      O 2861   1.631   0.588   1.593 -0.4494  0.2003 -0.1823
  926WAT     H1 2862   1.601   0.546   1.673  2.1765  0.3618  0.9765
  926WAT     H2 2863   1.667   0.517   1.541  0.9548  0.5319  0.3104
  927WAT      O 2864   1.723   1.305   0.519 -0.0080 -0.1357 -0.3998
  927WAT     H1 2865   1.680   1.377   0.566  0.9348  0.4185 -0.3627
  927WAT     H2 2866   1.726   1.233   0.582 -2.9023 -1.0073 -1.0965
  928WAT      O 2867   1.518   0.377   2.612 -0.1709 -0.1011  0.2728
  928WAT     H1 2868   1.517   0.345   2.522  0.5320 -0.7706  0.4958
  928WAT     H2 2869   1.557   0.306   2.663 -0.6531  0.2325  1.1246
  929WAT      O 2870   3.235   2.474   3.652 -0.0181 -0.1676  0.2561
  929WAT     H1 2871   3.233   2.390   3.697  1.2153  0.3543  1.3474
  929WAT     H2 2872   3.144   2.505   3.656  0.0812 -0.0112  2.6799
  930WAT      O 2873   1.614   0.192   2.826 -0.4352  0.1464 -0.0732
  930WAT     H1 2874   1.534   0.181   2.878  0.8961 -0.2167  2.0162
  930WAT     H2 2875   1.652   0.105   2.822  0.7456  0.6121  0.5161
  931WAT      O 2876   3.091   1.836   3.451  0.2329 -0.0444 -0.6499
  931WAT     H1 2877   3.074   1.765   3.388 -0.8073 -2.0236  1.7029
  931WAT     H2 2878   3.185   1.850   3.446  0.0772  0.4894 -3.2298
  932WAT      O 2879   3.490   3.490   1.478  0.0957 -0.5212 -0.2222
  932WAT     H1 2880   3.431   3.453   1.543 -0.7945 -0.9849 -1.2620
  932WAT     H2 2881   3.564   3.523   1.529 -0.7263 -0.5597  1.0437
  933WAT      O 2882   1.050   3.791   2.823 -0.3773  0.0970 -0.0903
  933WAT     H1 2883   1.131   3.838   2.846 -1.0124  1.5907 -0.7428
  933WAT     H2 2884   1.042   3.804   2.728 -0.2946 -1.8692 -0.4133
  934WAT      O 2885   0.704   0.827   1.377 -0.3671  0.7220 -0.1800
  934WAT     H1 2886   0.799   0.820   1.363 -0.2441  1.0152  0.4731
  934WAT     H2 2887   0.689   0.919   1.396 -0.8083  0.7027 -0.4314
  935WAT      O 2888   1.880   0.410   0.374 -0.2808  0.8212  0.1502
  935WAT     H1 2889   1.816   0.344   0.400  0.9726 -0.4434  0.1636
  935WAT     H2 2890   1.904   0.453   0.456 -0.6662  0.8844  0.2318
  936WAT      O 2891   1.147   0.180   3.324  0.2059  0.1304 -0.4212
  936WAT     H1 2892   1.197   0.256   3.294 -0.9064  0.3498 -1.8509
  936WAT     H2 2893   1.066   0.183   3.273  0.5006 -2.5205 -1.2256
  937WAT      O 2894   0.663   1.790   2.657  0.0910  0.0261  0.0024
  937WAT     H1 2895   0.613   1.711   2.636 -0.5407  0.0132  1.4394
  937WAT     H2 2896   0.596   1.857   2.671  0.4981  0.2287  1.0936
  938WAT      O 2897   2.304   0.585   1.825 -0.1048  0.7373  0.6701
  938WAT     H1 2898   2.226   0.531   1.839 -0.6314  1.4087  0.3717
  938WAT     H2 2899   2.377   0.530   1.855 -0.6066 -0.2042  0.1945
  939WAT      O 2900   3.360   2.289   0.257  0.1873  0.3001 -0.1611
  939WAT     H1 2901   3.353   2.375   0.216 -0.1704  0.2883 -0.1311
  939WAT     H2 2902   3.396   2.233   0.189  3.1571  1.0549  0.6483
  940WAT      O 2903   2.376   3.540   1.120  0.1434  0.0976  0.0459
  940WAT     H1 2904   2.360   3.511   1.210  0.5989  0.3520  0.2135
  940WAT     H2 2905   2.396   3.459   1.072  0.5618  0.0346  0.3215
  941WAT      O 2906   2.965   1.130   0.907 -0.3924 -0.1217  0.4559
  941WAT     H1 2907   2.973   1.164   0.996  3.0781 -1.3847  0.7492
  941WAT     H2 2908   3.055   1.113   0.878 -1.5260 -2.9866 -2.0139
  942WAT      O 2909   0.683   3.807   2.688  0.1806 -0.5586  0.1492
  942WAT     H1 2910   0.613   3.758   2.732  0.4932 -0.6343  0.5669
  942WAT     H2 2911   0.686   3.891   2.734  0.5039 -0.6365  0.2727
  943WAT      O 2912   2.311   3.564   2.756 -0.4176  0.0262 -0.1442
  943WAT     H1 2913   2.356   3.629   2.701  0.0265  0.0842  0.2830
  943WAT     H2 2914   2.287   3.612   2.835  1.6537 -0.7525  1.0557
  944WAT      O 2915   2.416   1.820   1.752  0.0230  0.2927  0.5357
  944WAT     H1 2916   2.394   1.890   1.689  0.1578  0.0877  0.2593
  944WAT     H2 2917   2.344   1.822   1.815  1.2325  2.3790  2.0027
  945WAT      O 2918   0.605   1.114   0.736  0.2926  0.3806  0.7714
  945WAT     H1 2919   0.666   1.062   0.684 -0.2346 -0.0308  0.5617
  945WAT     H2 2920   0.573   1.181   0.675  0.4011  0.4822  0.8280
  946WAT      O 2921   0.103   3.572   3.050  0.7558 -0.1662 -0.3837
  946WAT     H1 2922   0.055   3.550   2.970 -1.5827 -0.3460  0.9696
  946WAT     H2 2923   0.112   3.667   3.047  1.0114 -0.2070 -1.0222
  947WAT      O 2924   0.146   3.648   2.209 -0.0215 -0.0605  0.0494
  947WAT     H1 2925   0.201   3.629   2.285  1.1960  2.6508 -0.0163
  947WAT     H2 2926   0.072   3.697   2.245  0.3558  0.8829 -0.4184
  948WAT      O 2927   0.536   1.069   1.648  0.4596 -0.0926 -0.6289
  948WAT     H1 2928   0.626   1.102   1.651  0.0296  1.0438  0.2376
  948WAT     H2 2929   0.493   1.122   1.581 -0.4258  1.7202  1.2668
  949WAT      O 2930   0.352   2.766   3.515 -0.2131  0.0543 -0.0491
  949WAT     H1 2931   0.277   2.791   3.569 -0.3450  0.5265 -0.4432
  949WAT     H2 2932   0.424   2.753   3.577  0.1216  2.3475  0.1325
  950WAT      O 2933   1.665   3.943   1.362 -0.1599  0.0051 -0.2910
  950WAT     H1 2934   1.578   3.941   1.403 -0.5577  3.5230 -0.6200
  950WAT     H2 2935   1.684   4.037   1.352  2.7235 -0.6702 -2.2904
  951WAT      O 2936   0.929   1.493   2.157 -0.2674 -0.1215 -0.2992
  951WAT     H1 2937   0.908   1.584   2.177 -2.4009 -0.3254 -1.2966
  951WAT     H2 2938   0.951   1.494   2.064  2.3426 -0.2649  0.2582
  952WAT      O 2939   2.358   1.429   3.209  0.0492  0.1554 -0.6335
  952WAT     H1 2940   2.298   1.498   3.180  0.4457  1.5424  1.5474
  952WAT     H2 2941   2.379   1.381   3.130 -1.5608  1.5061 -1.9802
  953WAT      O 2942   1.836   3.410   0.100  0.2293 -0.2314  0.9287
  953WAT     H1 2943   1.836   3.346   0.171 -2.2366 -0.9039  0.4360
  953WAT     H2 2944   1.866   3.360   0.024 -1.3637 -0.7797  0.6181
  954WAT      O 2945   0.033   1.741   1.364 -0.3429  0.0447 -0.0944
  954WAT     H1 2946   0.025   1.703   1.276 -1.1693 -0.5778  0.2281
  954WAT     H2 2947   0.054   1.833   1.349 -0.1429 -0.1294 -0.9348
  955WAT      O 2948   2.206   0.202   0.414  0.1023 -0.1795 -0.6060
  955WAT     H1 2949   2.262   0.220   0.490  0.0570 -0.6513 -0.4573
  955WAT     H2 2950   2.176   0.112   0.427 -3.0983  0.9572  0.8951
  956WAT      O 2951   3.196   1.021   3.808 -0.0620  0.1429  0.4388
  956WAT     H1 2952   3.133   1.081   3.769 -0.0991  1.4686  2.4482
  956WAT     H2 2953   3.223   0.965   3.735 -1.4795  1.3223 -1.0633
  957WAT      O 2954   1.385   1.119   0.533  0.3228  0.2182  0.4162
  957WAT     H1 2955   1.356   1.164   0.612  1.8495 -0.7898  1.6154
  957WAT     H2 2956   1.380   1.026   0.554 -1.5187 -0.1973 -1.5563
  958WAT      O 2957   2.702   3.387   3.229 -0.1334  0.5059  0.6323
  958WAT     H1 2958   2.691   3.434   3.312  0.1572  4.8829 -1.5215
  958WAT     H2 2959   2.613   3.372   3.198 -0.4149  3.8835 -0.6084
  959WAT      O 2960   2.022   1.856   3.695 -0.2463  0.3220  0.2105
  959WAT     H1 2961   1.971   1.819   3.767  1.1322  0.1577  1.1323
  959WAT     H2 2962   2.103   1.805   3.694  0.3685  1.2718 -0.5338
  960WAT      O 2963   2.606   0.095   3.793  0.1367  0.6523  0.3857
  960WAT     H1 2964   2.687   0.142   3.776  1.0856 -0.8209  0.7181
  960WAT     H2 2965   2.616   0.011   3.747 -1.8459  1.0439 -0.8836
  961WAT      O 2966   2.421   2.370   0.112 -0.0910 -0.2621  0.6476
  961WAT     H1 2967   2.490   2.420   0.156 -0.5112 -0.6294  1.7728
  961WAT     H2 2968   2.352   2.362   0.179 -1.1325 -0.0781 -0.3789
  962WAT      O 2969   2.405   0.365   1.025  0.1122 -0.5240 -0.4585
  962WAT     H1 2970   2.377   0.383   1.114  1.7501  1.8377 -0.3118
  962WAT     H2 2971   2.332   0.318   0.985 -1.6369  0.4232  1.4460
  963WAT      O 2972   0.174   2.277   3.399  0.0234 -0.1338 -0.7428
  963WAT     H1 2973   0.206   2.341   3.462  0.2454 -0.5051 -0.4718
  963WAT     H2 2974   0.078   2.287   3.401  0.1269  1.8740 -2.5061
  964WAT      O 2975   2.730   1.732   3.331 -0.0844 -0.0707 -0.5135
  964WAT     H1 2976   2.734   1.638   3.350 -2.3859  0.2415  2.1672
  964WAT     H2 2977   2.658   1.740   3.269 -0.6237 -0.0002  0.1134
  965WAT      O 2978   2.224   0.814   0.075  0.0428  0.5525 -0.1100
  965WAT     H1 2979   2.202   0.735   0.026 -1.4309  1.6647 -1.3083
  965WAT     H2 2980   2.305   0.791   0.122 -0.0452 -1.4605 -0.8547
  966WAT      O 2981   2.816   0.611   1.303 -0.3389  0.3153 -0.3725
  966WAT     H1 2982   2.782   0.684   1.252 -0.0227 -0.1526 -1.2697
  966WAT     H2 2983   2.903   0.595   1.267 -0.8210 -1.1885 -0.9154
  967WAT      O 2984   3.300   1.212   1.408  0.1972  0.0325 -0.3583
  967WAT     H1 2985   3.372   1.218   1.345  0.6275 -3.1336 -0.3462
  967WAT     H2 2986   3.340   1.181   1.489 -1.0793 -1.9141 -0.3788
  968WAT      O 2987   0.243   0.466   0.293  0.2236 -0.1603 -0.2805
  968WAT     H1 2988   0.325   0.474   0.244 -0.2358  1.5072 -0.8487
  968WAT     H2 2989   0.252   0.527   0.366  0.7712 -2.4039  1.6144
  969WAT      O 2990   2.650   0.291   2.807 -0.0367  0.1267  0.0264
  969WAT     H1 2991   2.639   0.325   2.896 -1.7015 -0.6215  0.1345
  969WAT     H2 2992   2.571   0.240   2.790 -0.1100  0.8362 -2.1591
  970WAT      O 2993   1.074   3.149   3.741  0.6785 -0.0083  0.0292
  970WAT     H1 2994   1.020   3.116   3.813  1.2409 -0.6886  0.1529
  970WAT     H2 2995   1.125   3.073   3.713  0.4855  0.2561 -1.0784
  971WAT      O 2996   1.242   2.724   2.698  0.0342 -0.3426  0.8293
  971WAT     H1 2997   1.281   2.794   2.645 -0.6073 -0.2860  0.4246
  971WAT     H2 2998   1.317   2.669   2.724  0.6342  0.8572  1.7229
  972WAT      O 2999   1.609   3.191   3.917 -0.3812  0.1389  0.3367
  972WAT     H1 3000   1.605   3.280   3.952  0.5306  0.1814  0.3430
  972WAT     H2 3001   1.632   3.137   3.992 -0.4355 -0.0378  0.2258
  973WAT      O 3002   2.427   4.074   3.195  0.1014  0.4148 -0.0453
  973WAT     H1 3003   2.342   4.045   3.163  0.5098 -1.1691  0.2288
  973WAT     H2 3004   2.412   4.164   3.224 -1.8358 -0.3036  1.3748
  974WAT      O 3005   3.490   3.802   0.156 -0.0348  0.4062  0.1766
  974WAT     H1 3006   3.571   3.847   0.133  1.6026 -1.5570  1.6434
  974WAT     H2 3007   3.464   3.757   0.076 -0.2652  1.8019 -0.5738
  975WAT      O 3008   1.580   3.493   2.748 -0.4546  0.2231  0.1948
  975WAT     H1 3009   1.576   3.406   2.788 -0.5582  0.0824 -0.1237
  975WAT     H2 3010   1.604   3.477   2.657 -0.6077  0.5181  0.1016
  976WAT      O 3011   0.016   3.764   0.809  0.4531 -0.4237 -0.6737
  976WAT     H1 3012  -0.056   3.728   0.756 -0.0927  1.1059 -1.0219
  976WAT     H2 3013   0.002   3.727   0.896 -0.7901 -0.1295 -0.7310
  977WAT      O 3014   3.583   2.035   2.392 -0.0800 -0.3965 -0.0042
  977WAT     H1 3015   3.509   2.079   2.348  1.7994  0.9644 -1.9998
  977WAT     H2 3016   3.648   2.104   2.404  0.9509 -1.5824  1.6008
  978WAT      O 3017   2.709   4.040   1.760 -0.1280  0.5967  0.3038
  978WAT     H1 3018   2.787   3.984   1.748 -1.2235 -1.0708  0.5735
  978WAT     H2 3019   2.714   4.069   1.850  0.6082  1.1893  0.0785
  979WAT      O 3020   0.890   2.159   2.509 -0.6322  0.4180  0.3194
  979WAT     H1 3021   0.833   2.086   2.485  0.6633 -0.4571 -0.1589
  979WAT     H2 3022   0.844   2.202   2.581 -1.0723 -1.3142  1.1157
  980WAT      O 3023   0.331   1.649   2.856  0.0335 -0.3560  0.1786
  980WAT     H1 3024   0.289   1.732   2.834  0.4649 -0.3375 -0.6138
  980WAT     H2 3025   0.268   1.605   2.913 -0.6866  0.0335 -0.3051
  981WAT      O 3026   2.166   3.996   3.162 -0.4640 -0.3770 -0.2278
  981WAT     H1 3027   2.083   4.042   3.155  0.2336  0.8274 -0.9756
  981WAT     H2 3028   2.145   3.905   3.140 -0.9714  0.5531 -4.5848
  982WAT      O 3029   1.003   0.068   0.285  0.8222 -0.6347 -0.1938
  982WAT     H1 3030   0.955  -0.001   0.330  0.3359 -0.2016 -0.0447
  982WAT     H2 3031   1.088   0.071   0.330  1.0555 -1.4892 -0.5504
  983WAT      O 3032   3.682   1.820   2.281  0.0413  0.8037  0.0084
  983WAT     H1 3033   3.774   1.843   2.265  0.8904  0.5517  3.5360
  983WAT     H2 3034   3.649   1.891   2.335 -1.3760  0.1477  0.0327
  984WAT      O 3035   1.334   3.240   0.019 -0.4031  0.1129  0.0217
  984WAT     H1 3036   1.423   3.273   0.012 -0.1282  0.6979  3.8482
  984WAT     H2 3037   1.342   3.145   0.007  0.6123  0.2315 -0.2689
  985WAT      O 3038   1.517   2.211   0.387 -0.4989  0.2415  0.3570
  985WAT     H1 3039   1.491   2.124   0.360 -0.2881  0.5426 -0.8613
  985WAT     H2 3040   1.458   2.270   0.341 -0.8135  0.7527  1.3701
  986WAT      O 3041   0.374   2.965   1.484 -0.6814 -0.2708  0.3678
  986WAT     H1 3042   0.453   2.934   1.440 -0.1264  0.5156  0.7827
  986WAT     H2 3043   0.302   2.923   1.437 -0.1267  0.7002 -1.4658
  987WAT      O 3044   0.703   3.694   3.487 -0.2887  0.2340  0.4857
  987WAT     H1 3045   0.780   3.734   3.528  0.0499  0.2244 -0.1450
  987WAT     H2 3046   0.730   3.674   3.398 -1.1049  0.4720  0.1758
  988WAT      O 3047   0.255   2.084   1.991  0.1104  0.1167 -0.1571
  988WAT     H1 3048   0.299   2.168   2.006 -0.7032  1.0937 -2.6410
  988WAT     H2 3049   0.327   2.025   1.967  0.4943  0.6478 -0.3539
  989WAT      O 3050   3.536   3.240   1.703 -0.0714  0.2072  0.4823
  989WAT     H1 3051   3.467   3.175   1.720 -0.1340  0.1389  0.0020
  989WAT     H2 3052   3.618   3.194   1.721 -0.1062 -0.0775 -0.0562
  990WAT      O 3053   1.928   2.464   0.281 -0.2476  0.0061 -0.1376
  990WAT     H1 3054   1.999   2.521   0.311 -0.4256  0.0384  0.2176
  990WAT     H2 3055   1.857   2.478   0.344 -0.1519 -0.8941  0.1824
  991WAT      O 3056   0.883   0.334   0.332  0.2215 -0.0948  0.2198
  991WAT     H1 3057   0.945   0.369   0.269 -0.2219  0.9876  0.3663
  991WAT     H2 3058   0.890   0.239   0.322  1.7780 -0.0013  0.1261
  992WAT      O 3059   0.912   3.787   3.615 -0.7243  0.0075 -0.1040
  992WAT     H1 3060   0.948   3.754   3.697  2.2865  2.4103 -0.2755
  992WAT     H2 3061   0.914   3.882   3.625  0.5293  0.4197 -3.1831
  993WAT      O 3062   2.403   0.251   3.284  0.2762 -0.1647  0.0369
  993WAT     H1 3063   2.444   0.336   3.295  1.6689 -0.8593  0.4918
  993WAT     H2 3064   2.334   0.249   3.350 -1.4775  1.5519 -1.6425
  994WAT      O 3065   3.069   3.116   1.175  0.0879 -0.4400  0.0248
  994WAT     H1 3066   3.156   3.092   1.205  0.8305  0.0235 -1.6213
  994WAT     H2 3067   3.030   3.165   1.247  1.9704  1.1106  0.0446
  995WAT      O 3068   1.716   3.867   1.705  0.1263 -0.1673 -0.3628
  995WAT     H1 3069   1.667   3.948   1.688  0.4433 -0.1196 -1.1021
  995WAT     H2 3070   1.652   3.797   1.687 -0.2450 -0.0901  0.5926
  996WAT      O 3071   2.282   0.197   1.279 -0.1489  0.2413  0.4801
  996WAT     H1 3072   2.270   0.282   1.321 -1.2455 -0.2394  1.2036
  996WAT     H2 3073   2.193   0.170   1.255  0.3706  0.2409 -1.7026
  997WAT      O 3074   0.076   1.003   2.097  0.3185  0.3940 -0.3546
  997WAT     H1 3075   0.132   1.081   2.096 -1.4452  1.7354  0.1448
  997WAT     H2 3076   0.010   1.021   2.164 -0.4616 -1.3110 -0.5975
  998WAT      O 3077   1.392   2.834   3.430 -0.0021  0.0390  0.0533
  998WAT     H1 3078   1.378   2.754   3.481  1.9248  0.1261  0.7893
  998WAT     H2 3079   1.429   2.805   3.347  1.6415  0.1843  0.7029
  999WAT      O 3080   3.650   3.410   2.313  0.1454 -0.5263 -0.5822
  999WAT     H1 3081   3.611   3.473   2.252 -1.5538 -0.6799  0.2877
  999WAT     H2 3082   3.736   3.392   2.277  0.2829  1.5235 -1.4151
 1000WAT      O 3083   1.975   2.523   2.215 -0.2635 -0.7138  0.4363
 1000WAT     H1 3084   1.880   2.514   2.201 -0.1654 -0.6159 -0.3099
 1000WAT     H2 3085   2.010   2.436   2.194 -0.2882 -1.0484  1.6861
 1001WAT      O 3086   2.039   2.553   3.220  0.1960  0.1361  0.1300
 1001WAT     H1 3087   1.987   2.482   3.258  0.2353 -0.9272 -1.6683
 1001WAT     H2 3088   2.129   2.530   3.241  0.1248  0.4386  0.7833
 1002WAT      O 3089   1.646   1.970   3.669  0.1791 -0.5232  0.5384
 1002WAT     H1 3090   1.676   2.014   3.590 -1.0277 -0.6782 -0.0356
 1002WAT     H2 3091   1.725   1.934   3.708  0.7716 -0.6960 -0.7555
 1003WAT      O 3092   3.403   0.064   2.358 -0.3090 -0.1418  0.1454
 1003WAT     H1 3093   3.411   0.105   2.444 -0.2858 -1.9438  1.0472
 1003WAT     H2 3094   3.309   0.048   2.348 -0.5929  1.9708 -1.1472
 1004WAT      O 3095   2.800   1.175   3.376  0.4985  0.8501  0.3135
 1004WAT     H1 3096   2.859   1.103   3.398  0.0151  0.8211  1.6329
 1004WAT     H2 3097   2.840   1.217   3.300  0.4172 -1.2321 -0.9543
 1005WAT      O 3098   1.386   2.896   2.524  0.6657 -0.5030  0.6135
 1005WAT     H1 3099   1.477   2.870   2.537  1.1363  0.7971  0.0418
 1005WAT     H2 3100   1.366   2.868   2.434  0.6971 -0.2390  0.5239
 1006WAT      O 3101   1.862   3.150   0.955 -0.3405 -0.1029 -0.0362
 1006WAT     H1 3102   1.835   3.232   0.996 -0.0117 -1.2749  2.7371
 1006WAT     H2 3103   1.783   3.117   0.912 -0.8752  0.8843  0.1679
 1007WAT      O 3104   0.387   0.625   1.296  0.2618 -0.5758 -0.1996
 1007WAT     H1 3105   0.309   0.680   1.312 -0.3930 -1.5459  0.0427
 1007WAT     H2 3106   0.447   0.682   1.250  0.1840  0.8112  1.3036
 1008WAT      O 3107   3.014   2.479   1.748 -0.2086 -0.5199  0.3690
 1008WAT     H1 3108   2.927   2.461   1.712  0.0455  0.5103 -0.8353
 1008WAT     H2 3109   3.062   2.396   1.735  0.2418  0.0960 -2.9406
 1009WAT      O 3110   3.050   3.835   3.437 -0.4744  0.5468 -0.0331
 1009WAT     H1 3111   3.111   3.891   3.484 -0.6671  0.2256  0.6163
 1009WAT     H2 3112   3.099   3.754   3.421 -0.0526  1.0249 -1.3430
 1010WAT      O 3113   2.542   0.737   1.866 -0.3017 -0.0656  0.4036
 1010WAT     H1 3114   2.505   0.808   1.814  1.4864  0.1261 -0.7107
 1010WAT     H2 3115   2.509   0.657   1.825 -0.8933  0.0940  0.5560
 1011WAT      O 3116   3.178   2.255   3.801  0.0950 -0.2635 -0.1160
 1011WAT     H1 3117   3.250   2.213   3.847 -0.1717  0.6359  1.1979
 1011WAT     H2 3118   3.099   2.220   3.842 -0.2026 -0.4924 -0.8623
 1012WAT      O 3119   2.785   1.253   3.969  0.2543  0.0542  0.1803
 1012WAT     H1 3120   2.720   1.188   3.994  0.8663 -0.8967 -0.6279
 1012WAT     H2 3121   2.826   1.280   4.051  0.7723 -1.4347  0.4425
 1013WAT      O 3122   0.406   0.421   2.460  0.0473 -0.5606  0.5308
 1013WAT     H1 3123   0.422   0.426   2.555 -0.8566 -0.5537  0.6937
 1013WAT     H2 3124   0.415   0.328   2.440  0.4844 -0.5308  0.5731
 1014WAT      O 3125   0.652   0.508   0.372 -0.1236 -0.2740  0.3559
 1014WAT     H1 3126   0.711   0.435   0.348  1.4004  0.8851  0.3940
 1014WAT     H2 3127   0.662   0.570   0.300 -1.6022 -0.1966  0.2019
 1015WAT      O 3128   2.236   2.933   1.467  0.0391  0.3831  0.1784
 1015WAT     H1 3129   2.196   2.850   1.439 -1.0179  0.5257  1.1771
 1015WAT     H2 3130   2.169   2.999   1.448  1.1281  1.1436 -1.2393
 1016WAT      O 3131   2.177   1.638   2.352  0.7913  0.0170 -0.0611
 1016WAT     H1 3132   2.188   1.694   2.275  1.5177  1.4517  1.0560
 1016WAT     H2 3133   2.150   1.553   2.315  1.3015  0.5989 -1.9038
 1017WAT      O 3134   2.280   2.581   1.734 -0.0534 -0.5134 -0.1503
 1017WAT     H1 3135   2.288   2.668   1.774  0.5080 -0.9657  0.7396
 1017WAT     H2 3136   2.200   2.544   1.771  1.2034 -1.5079  1.7640
 1018WAT      O 3137   0.394   3.128   3.143 -0.6433  0.4810 -0.2094
 1018WAT     H1 3138   0.360   3.189   3.077  1.5282  0.0134 -1.8614
 1018WAT     H2 3139   0.425   3.053   3.093  1.1672  0.1321  1.3243
 1019WAT      O 3140   3.611   4.080   1.373  0.1538  0.1702  0.3120
 1019WAT     H1 3141   3.645   4.135   1.443 -3.4724  1.1266  1.4842
 1019WAT     H2 3142   3.598   4.140   1.299 -0.0550  0.0390  0.2424
 1020WAT      O 3143   0.650   1.102   2.926 -0.8283 -0.1346 -0.1985
 1020WAT     H1 3144   0.659   1.195   2.907  1.4265 -0.6417 -2.1186
 1020WAT     H2 3145   0.574   1.075   2.875 -0.4211  0.3455 -1.0865
 1021WAT      O 3146   1.156   3.843   3.474  0.0000 -0.0978 -0.1157
 1021WAT     H1 3147   1.085   3.782   3.490 -0.1849  0.2289  0.3368
 1021WAT     H2 3148   1.122   3.928   3.503  0.2191  0.2398 -0.8107
 1022WAT      O 3149   2.235   2.005   2.576  0.1479  0.0812 -0.4777
 1022WAT     H1 3150   2.174   2.060   2.625  1.0682  0.5073  0.1979
 1022WAT     H2 3151   2.320   2.022   2.614  0.8290  0.0879 -1.9284
 1023WAT      O 3152   3.384   0.191   3.658  0.1714 -0.0764 -0.2244
 1023WAT     H1 3153   3.427   0.174   3.742 -0.3139 -0.5940 -0.0657
 1023WAT     H2 3154   3.391   0.285   3.645 -0.7966  0.1844  0.9913
 1024WAT      O 3155   1.527   2.210   2.676  0.0808 -0.1128  0.1537
 1024WAT     H1 3156   1.435   2.185   2.667  0.0836 -0.0891  0.0609
 1024WAT     H2 3157   1.525   2.300   2.709  0.0707 -0.1126  0.1527
 1025WAT      O 3158   3.161   1.131   2.327 -0.0131 -0.0548  0.3561
 1025WAT     H1 3159   3.141   1.075   2.252  0.4943 -0.3109  0.4097
 1025WAT     H2 3160   3.207   1.074   2.388  2.7848  0.9634 -0.6152
 1026WAT      O 3161   3.459   3.719   3.875 -0.0145  0.4858 -0.0538
 1026WAT     H1 3162   3.510   3.684   3.802 -2.4308  0.2614 -1.7713
 1026WAT     H2 3163   3.446   3.812   3.853  0.6878  0.8597  1.0244
 1027WAT      O 3164   0.337   1.594   3.685 -0.5947  0.2665  0.1813
 1027WAT     H1 3165   0.267   1.537   3.653 -1.6137  1.6233 -0.0726
 1027WAT     H2 3166   0.418   1.548   3.662 -1.3421 -0.0421 -1.9981
 1028WAT      O 3167   1.374   0.113   0.610  0.3494 -0.1917  0.2224
 1028WAT     H1 3168   1.308   0.055   0.648  1.8817 -1.4538  1.0857
 1028WAT     H2 3169   1.370   0.096   0.516  0.6501 -1.6461  0.4350
 1029WAT      O 3170   1.592   1.644   2.746 -0.3926 -0.9495  0.1780
 1029WAT     H1 3171   1.592   1.553   2.717 -3.1026 -0.7936 -0.6369
 1029WAT     H2 3172   1.527   1.647   2.816 -0.3970  0.3533  0.1534
 1030WAT      O 3173   1.688   3.698   2.291  0.3280 -0.3233  0.7455
 1030WAT     H1 3174   1.610   3.687   2.237  0.3238  0.0290  0.6755
 1030WAT     H2 3175   1.675   3.639   2.365  0.1579 -0.5245  0.5528
 1031WAT      O 3176   2.216   3.659   3.959  0.0080  0.0174 -0.4985
 1031WAT     H1 3177   2.231   3.744   3.919  1.8333 -0.5814 -1.2074
 1031WAT     H2 3178   2.272   3.658   4.036 -1.0575 -0.0439  0.2979
 1032WAT      O 3179   3.062   0.673   2.073 -0.7084  0.2800 -0.0708
 1032WAT     H1 3180   3.031   0.703   1.987 -0.3608  1.1077  0.0859
 1032WAT     H2 3181   3.013   0.727   2.135 -0.8408 -0.2077  0.2487
 1033WAT      O 3182   2.434   2.340   1.717  0.1761 -0.2531 -0.4352
 1033WAT     H1 3183   2.383   2.420   1.711 -0.5679 -0.7709 -1.4086
 1033WAT     H2 3184   2.504   2.352   1.652  0.9318  0.1854  0.4362
 1034WAT      O 3185   2.554   1.707   1.515  0.1085  0.2438 -0.6261
 1034WAT     H1 3186   2.525   1.684   1.604  1.5356 -1.0335 -0.4591
 1034WAT     H2 3187   2.613   1.782   1.528 -1.3305  1.4554 -0.7559
 1035WAT      O 3188   3.615   0.141   0.646  0.0288  0.0489 -0.0205
 1035WAT     H1 3189   3.662   0.067   0.686  1.4846 -0.0837 -1.8566
 1035WAT     H2 3190   3.546   0.100   0.593  0.2947  0.0387 -0.3622
 1036WAT      O 3191   0.443   3.022   1.096 -0.2910  0.0310  0.7561
 1036WAT     H1 3192   0.418   2.948   1.151 -1.4672  0.6021  1.0294
 1036WAT     H2 3193   0.385   3.015   1.020  0.8139 -0.3317 -0.0863
 1037WAT      O 3194   1.576   0.260   2.054  0.1838  0.0166 -0.4329
 1037WAT     H1 3195   1.652   0.204   2.067  1.2346  1.8856  2.5137
 1037WAT     H2 3196   1.599   0.314   1.979  1.0949 -0.4529 -0.5126
 1038WAT      O 3197   1.322   2.461   0.229  0.0033  0.2762  0.0670
 1038WAT     H1 3198   1.319   2.389   0.166 -2.3822  0.1927  0.1573
 1038WAT     H2 3199   1.247   2.516   0.205  0.2556  1.3349  1.5791
 1039WAT      O 3200   3.554   1.319   3.177  0.1431 -0.0037  0.1995
 1039WAT     H1 3201   3.553   1.350   3.086  0.8833 -1.9439 -0.5243
 1039WAT     H2 3202   3.471   1.348   3.214  0.0945  1.3363 -0.9035
 1040WAT      O 3203   2.758   3.126   1.919 -0.0348  0.0181 -0.1183
 1040WAT     H1 3204   2.779   3.034   1.937 -0.7729  0.0037  0.7502
 1040WAT     H2 3205   2.754   3.167   2.005  1.8495  1.2519 -0.5731
 1041WAT      O 3206   3.480   0.637   0.640 -0.0710  0.1158 -0.2743
 1041WAT     H1 3207   3.451   0.550   0.667  0.1767  0.0060 -0.3580
 1041WAT     H2 3208   3.401   0.679   0.606 -0.1559 -0.1373 -0.3896
 1042WAT      O 3209   0.321   0.697   2.660 -0.1439  0.1997 -0.2775
 1042WAT     H1 3210   0.310   0.758   2.732 -2.6160  0.5132 -0.8334
 1042WAT     H2 3211   0.374   0.626   2.696 -1.4068  0.2785  1.8949
 1043WAT      O 3212   3.298   1.439   0.540  0.3626  0.0592  0.5089
 1043WAT     H1 3213   3.266   1.513   0.489  0.4888  0.2172  0.6592
 1043WAT     H2 3214   3.256   1.449   0.626  0.6444  0.1480  0.6378
 1044WAT      O 3215   3.571   2.023   1.903  0.2518 -0.2579 -0.3806
 1044WAT     H1 3216   3.613   1.940   1.883  0.0174 -0.1395 -1.4327
 1044WAT     H2 3217   3.480   2.011   1.876  0.2986  0.4541 -0.8670
 1045WAT      O 3218   3.491   3.874   0.460  0.2384  0.0347  0.2973
 1045WAT     H1 3219   3.511   3.845   0.371  2.4002  0.4221  0.5950
 1045WAT     H2 3220   3.485   3.793   0.511  1.5178 -0.1116  0.2460
 1046WAT      O 3221   1.283   3.722   0.902 -0.5266  0.1015 -0.2195
 1046WAT     H1 3222   1.311   3.661   0.970  0.4040  0.2239 -0.4793
 1046WAT     H2 3223   1.331   3.803   0.920  0.6781 -0.2426 -1.7015
 1047WAT      O 3224   2.148   2.461   3.924  0.0420 -0.6183 -0.2246
 1047WAT     H1 3225   2.170   2.509   4.005  1.1863 -0.3742 -0.6628
 1047WAT     H2 3226   2.054   2.474   3.914  0.3859  2.1570 -0.6824
 1048WAT      O 3227   1.676   3.034   0.530  0.2643  0.0631  0.1873
 1048WAT     H1 3228   1.581   3.037   0.519  0.0059 -1.5717  1.5333
 1048WAT     H2 3229   1.689   3.021   0.624  1.9109  2.0117  0.3110
 1049WAT      O 3230   2.179   4.013   0.364  0.2702 -0.2548  0.0560
 1049WAT     H1 3231   2.116   3.943   0.347  0.7350 -0.7629  0.4032
 1049WAT     H2 3232   2.186   4.060   0.281  0.0230 -0.6693 -0.2036
 1050WAT      O 3233   2.453   3.331   2.018 -0.0585 -0.0145 -0.3379
 1050WAT     H1 3234   2.510   3.316   2.093  0.0846  0.3304 -0.3751
 1050WAT     H2 3235   2.446   3.245   1.976 -1.1396 -0.4858  0.7514
 1051WAT      O 3236   0.881   1.197   1.709 -0.2551  0.1091 -0.2002
 1051WAT     H1 3237   0.830   1.177   1.787  0.7558  1.3549  0.8213
 1051WAT     H2 3238   0.965   1.153   1.725 -0.3927 -0.5097 -1.0933
 1052WAT      O 3239   1.375   4.051   0.363  0.0124  0.4379  0.3698
 1052WAT     H1 3240   1.442   3.985   0.377 -1.0186 -0.7636 -0.1282
 1052WAT     H2 3241   1.400   4.095   0.283 -0.4183 -0.8530 -0.5053
 1053WAT      O 3242   0.598   2.877   1.331  0.1523  0.3393  1.0578
 1053WAT     H1 3243   0.602   2.782   1.324  0.3985  0.3516  1.0444
 1053WAT     H2 3244   0.626   2.909   1.245  2.9381  0.4793  1.9108
 1054WAT      O 3245   1.904   3.108   3.757  0.2790  0.5749 -0.3118
 1054WAT     H1 3246   1.902   3.200   3.732 -0.5058  0.4603 -0.7050
 1054WAT     H2 3247   1.984   3.099   3.808  0.0889  1.5908  0.2009
 1055WAT      O 3248   3.345   0.761   2.679 -0.3475  0.2190 -0.6742
 1055WAT     H1 3249   3.381   0.764   2.768 -0.9537  1.8305 -0.4605
 1055WAT     H2 3250   3.282   0.689   2.680  0.8781 -0.8892 -0.3059
 1056WAT      O 3251   3.373   2.938   0.644  0.0362  0.0167  0.3062
 1056WAT     H1 3252   3.374   2.917   0.551  1.9549  1.3264 -0.0285
 1056WAT     H2 3253   3.317   3.016   0.650  0.6667  0.4924  0.0925
 1057WAT      O 3254   2.380   3.322   0.674  0.2547 -0.2038  0.2078
 1057WAT     H1 3255   2.400   3.229   0.665  0.8997 -0.3942  2.8063
 1057WAT     H2 3256   2.463   3.366   0.654  0.2180 -0.2572 -0.0608
 1058WAT      O 3257   1.501   0.970   3.523  0.4394 -0.0017  0.3797
 1058WAT     H1 3258   1.421   1.012   3.554  1.5455  1.8183  0.8941
 1058WAT     H2 3259   1.506   0.888   3.573 -0.9785 -0.0513  0.4739
 1059WAT      O 3260   2.703   3.011   0.363  0.2251  0.1895 -0.2103
 1059WAT     H1 3261   2.763   3.018   0.437  1.0951 -1.7115 -0.6642
 1059WAT     H2 3262   2.624   2.971   0.400  0.3867 -0.0961 -0.1708
 1060WAT      O 3263   3.499   3.682   0.658 -0.3059 -0.1786  0.1935
 1060WAT     H1 3264   3.521   3.589   0.650  1.0399  0.2165 -1.0554
 1060WAT     H2 3265   3.404   3.683   0.670 -0.3063 -1.7206  0.5480
 1061WAT      O 3266   0.745   1.649   3.476 -0.0176  0.2699  0.2390
 1061WAT     H1 3267   0.757   1.740   3.503  1.0789  0.1582  0.1666
 1061WAT     H2 3268   0.773   1.647   3.384  0.2574 -0.1969  0.3297
 1062WAT      O 3269   0.416   3.496   0.104  0.1293  0.1067  0.2209
 1062WAT     H1 3270   0.406   3.405   0.132  1.9064  0.2048  1.3637
 1062WAT     H2 3271   0.409   3.493   0.009  0.3429 -1.2589  0.2283
 1063WAT      O 3272   0.073   3.393   0.108  0.3332 -0.6155  0.3348
 1063WAT     H1 3273   0.075   3.461   0.176 -0.0722  1.1962 -1.3895
 1063WAT     H2 3274  -0.017   3.392   0.078  1.1556  1.1015 -2.5139
 1064WAT      O 3275   3.695   1.759   1.068 -0.5390  0.2478  0.2669
 1064WAT     H1 3276   3.607   1.798   1.073 -1.0079 -0.7594  0.0953
 1064WAT     H2 3277   3.679   1.669   1.041  0.6244  0.3244 -0.7534
 1065WAT      O 3278   0.317   2.250   1.061  0.0886  0.0642 -0.1041
 1065WAT     H1 3279   0.375   2.293   0.999  1.2788 -0.4425  0.6403
 1065WAT     H2 3280   0.240   2.227   1.009  0.9534 -0.1386 -1.3362
 1066WAT      O 3281   3.531   1.010   2.300  0.2732  0.0221 -0.1424
 1066WAT     H1 3282   3.567   0.971   2.380  0.5636 -0.5650 -0.5525
 1066WAT     H2 3283   3.524   1.104   2.320  0.4216 -0.1071  0.5385
 1067WAT      O 3284   3.256   2.697   0.748  0.5505 -0.1545  0.2981
 1067WAT     H1 3285   3.296   2.774   0.708  2.0415 -0.0850  1.7992
 1067WAT     H2 3286   3.184   2.732   0.800  1.0288  0.2152  0.7295
 1068WAT      O 3287   3.441   1.505   0.945  0.6941  0.1017  0.0342
 1068WAT     H1 3288   3.409   1.584   0.900  1.9756  0.4436 -0.3279
 1068WAT     H2 3289   3.391   1.433   0.906 -0.9731  0.7728  0.8425
 1069WAT      O 3290   2.405   1.396   3.516  0.2021 -0.0902  0.2037
 1069WAT     H1 3291   2.428   1.348   3.595 -0.1069  0.8992  0.9219
 1069WAT     H2 3292   2.315   1.426   3.531  0.1270  0.0816 -0.5366
 1070WAT      O 3293   2.855   0.590   0.410  0.3316  0.3464  0.0226
 1070WAT     H1 3294   2.932   0.586   0.354  1.2590  0.3308  1.2427
 1070WAT     H2 3295   2.856   0.508   0.458  0.4780  1.0072  1.1928
 1071WAT      O 3296   2.767   3.803   2.935  0.8753 -0.4961 -0.1262
 1071WAT     H1 3297   2.691   3.836   2.887  1.2705  0.6329  0.0041
 1071WAT     H2 3298   2.761   3.708   2.925 -1.7745 -0.6438  1.6849
 1072WAT      O 3299   1.322   2.405   1.663 -0.6586 -0.0095  0.0437
 1072WAT     H1 3300   1.270   2.405   1.743 -1.5905 -0.2083 -0.5541
 1072WAT     H2 3301   1.291   2.481   1.614  0.2971  0.4382  0.1067
 1073WAT      O 3302   3.442   1.495   2.000 -0.6217  0.3495 -0.1527
 1073WAT     H1 3303   3.403   1.408   1.991 -0.5494  0.3115 -0.1035
 1073WAT     H2 3304   3.373   1.548   2.041 -0.7797  0.3997 -0.4773
 1074WAT      O 3305   0.798   3.312   1.170 -0.0101 -0.1065 -0.1762
 1074WAT     H1 3306   0.718   3.300   1.221  0.3817  1.0481  0.7445
 1074WAT     H2 3307   0.783   3.392   1.120  0.2171 -0.3862 -0.6948
 1075WAT      O 3308   0.558   1.478   3.592  0.0311 -0.0399  0.9327
 1075WAT     H1 3309   0.630   1.531   3.559  0.3027 -0.6359  0.5284
 1075WAT     H2 3310   0.559   1.400   3.535 -1.8634  0.6081 -0.0467
 1076WAT      O 3311   2.202   3.927   1.286  0.6095 -0.0797 -0.1277
 1076WAT     H1 3312   2.243   3.846   1.316  0.4435 -1.2826 -2.8886
 1076WAT     H2 3313   2.245   3.948   1.203 -0.8373  1.4536 -0.5636
 1077WAT      O 3314   3.507   0.710   3.512  0.3085  0.0974  0.2132
 1077WAT     H1 3315   3.514   0.657   3.432 -1.3433 -1.2198  0.8943
 1077WAT     H2 3316   3.553   0.659   3.579 -2.2854 -1.1706  1.1491
 1078WAT      O 3317   2.107   3.532   2.471  0.0110  0.1378  0.2489
 1078WAT     H1 3318   2.076   3.477   2.543  1.7220  0.5380  1.3312
 1078WAT     H2 3319   2.109   3.620   2.508 -1.7534  0.8450 -1.1748
 1079WAT      O 3320   2.089   1.944   0.778 -0.1607 -0.1665 -0.1916
 1079WAT     H1 3321   2.020   1.881   0.800  1.2651 -1.4190  0.8657
 1079WAT     H2 3322   2.058   2.027   0.814 -0.0333 -1.2136  2.5717
 1080WAT      O 3323   1.496   2.282   2.153  0.2169  0.0553 -0.0788
 1080WAT     H1 3324   1.529   2.366   2.119 -1.8979  0.8839 -0.2010
 1080WAT     H2 3325   1.426   2.257   2.092 -0.1457 -1.0878  0.7697
 1081WAT      O 3326   0.298   2.931   2.128  0.4326  0.1690  0.3668
 1081WAT     H1 3327   0.218   2.949   2.079  0.3477 -1.0186  0.0162
 1081WAT     H2 3328   0.282   2.968   2.215 -0.3620  0.2469  0.1992
 1082WAT      O 3329   2.006   2.717   3.724 -0.1186  0.5806 -0.4039
 1082WAT     H1 3330   1.993   2.756   3.638 -0.2861  0.1658 -0.5658
 1082WAT     H2 3331   2.100   2.696   3.727 -0.0020  1.1041 -0.2680
 1083WAT      O 3332   2.586   0.100   1.558  0.4390  0.3557 -0.3165
 1083WAT     H1 3333   2.501   0.057   1.546  0.8188  0.1801 -2.9004
 1083WAT     H2 3334   2.632   0.044   1.621 -1.0584  0.0383  0.5542
 1084WAT      O 3335   0.440   0.350   1.332  0.4296 -0.1572 -0.3975
 1084WAT     H1 3336   0.416   0.442   1.335 -1.6194 -0.6856  2.0616
 1084WAT     H2 3337   0.423   0.324   1.241  2.5256  2.1437 -1.5650
 1085WAT      O 3338   0.990   2.824   3.897 -0.4530  0.7602 -0.0674
 1085WAT     H1 3339   0.943   2.757   3.947 -0.7429  1.2065  0.2564
 1085WAT     H2 3340   0.942   2.905   3.913  0.9864  1.4466  1.1263
 1086WAT      O 3341   2.033   3.393   1.231 -0.6246 -0.0039  0.0767
 1086WAT     H1 3342   2.114   3.401   1.281 -0.4152  0.4772 -0.3296
 1086WAT     H2 3343   2.059   3.347   1.151 -0.5887  0.8412 -0.4086
 1087WAT      O 3344   1.098   2.983   1.681 -0.2804 -0.0502 -0.4066
 1087WAT     H1 3345   1.134   2.903   1.642  1.0544 -0.2527  1.1529
 1087WAT     H2 3346   1.137   3.054   1.629 -1.2362 -0.3524 -1.6022
 1088WAT      O 3347   0.180   3.065   0.551 -0.2443  0.3761  0.1926
 1088WAT     H1 3348   0.102   3.051   0.497 -0.0857  0.6384 -0.1063
 1088WAT     H2 3349   0.209   2.976   0.574 -2.1738  0.2537  2.5774
 1089WAT      O 3350   1.902   3.239   3.030 -0.2352 -0.5074 -0.3619
 1089WAT     H1 3351   1.967   3.308   3.041 -0.1108 -0.2409 -2.4386
 1089WAT     H2 3352   1.954   3.162   3.006 -0.5803 -0.6816 -0.5520
 1090WAT      O 3353   0.651   4.045   2.808  0.3539  0.3422  0.1205
 1090WAT     H1 3354   0.645   4.044   2.903  0.9818 -0.8254  0.1734
 1090WAT     H2 3355   0.695   4.127   2.788  0.8248  0.2911  0.8927
 1091WAT      O 3356   1.160   2.114   2.711 -0.4009 -0.4018  0.0482
 1091WAT     H1 3357   1.109   2.169   2.651 -0.6914 -1.3680 -0.6047
 1091WAT     H2 3358   1.094   2.057   2.752 -0.0496 -0.5339  0.4330
 1092WAT      O 3359   3.298   1.653   0.151 -0.1035  0.2255 -0.0295
 1092WAT     H1 3360   3.220   1.708   0.148  0.2574  0.7482 -0.0594
 1092WAT     H2 3361   3.370   1.715   0.166  0.5084 -0.0590 -1.6017
 1093WAT      O 3362   3.687   0.521   0.882 -0.3681  0.8953  0.0333
 1093WAT     H1 3363   3.738   0.485   0.810  0.8972 -0.1804  1.4017
 1093WAT     H2 3364   3.613   0.461   0.892  1.5646 -1.3810  2.1042
 1094WAT      O 3365   2.319   2.898   0.222  0.7874 -0.4200 -0.1611
 1094WAT     H1 3366   2.403   2.901   0.175  0.8977 -0.5338  0.0270
 1094WAT     H2 3367   2.259   2.946   0.166  0.9261 -0.5298 -0.4084
 1095WAT      O 3368   2.463   3.371   2.853  0.4841  0.5332  0.1539
 1095WAT     H1 3369   2.463   3.311   2.778 -1.2999 -1.7352  1.8173
 1095WAT     H2 3370   2.434   3.455   2.817  1.8942  0.1365 -2.0581
 1096WAT      O 3371   2.116   0.532   2.822  0.4108 -0.3160 -0.2440
 1096WAT     H1 3372   2.050   0.464   2.808 -0.7385  0.9723 -1.3165
 1096WAT     H2 3373   2.159   0.507   2.904 -2.3952 -0.4236  1.3037
 1097WAT      O 3374   0.721   0.001   3.581 -0.1405 -0.0377  0.1829
 1097WAT     H1 3375   0.778   0.019   3.655 -0.5203  0.5097  0.3463
 1097WAT     H2 3376   0.756   0.054   3.510  0.6288 -1.0675 -0.2385
 1098WAT      O 3377   3.418   3.860   3.408  0.4801 -0.9910  0.0209
 1098WAT     H1 3378   3.463   3.808   3.475 -0.2588  0.8938  2.1013
 1098WAT     H2 3379   3.340   3.808   3.386  0.4186 -1.3735  1.0819
 1099WAT      O 3380   0.153   0.498   2.265  0.0837 -0.5916  0.7423
 1099WAT     H1 3381   0.074   0.547   2.284 -0.8205 -1.4982 -0.5116
 1099WAT     H2 3382   0.203   0.499   2.346 -1.5967 -0.6974  1.8122
 1100WAT      O 3383   1.741   0.129   1.311 -0.1476 -0.7175 -0.2186
 1100WAT     H1 3384   1.821   0.107   1.263  0.3729 -2.0127  1.1721
 1100WAT     H2 3385   1.685   0.171   1.246  1.0670 -1.1390 -1.5927
 1101WAT      O 3386   3.057   1.426   2.011  0.0013 -0.0131  0.7345
 1101WAT     H1 3387   3.138   1.476   2.022 -0.3426  0.4506  1.2669
 1101WAT     H2 3388   3.009   1.472   1.943 -0.2148  0.2597  1.0654
 1102WAT      O 3389   0.360   2.571   1.884 -0.3793  0.0235  0.1407
 1102WAT     H1 3390   0.417   2.539   1.954 -1.0316 -0.0727  0.6327
 1102WAT     H2 3391   0.360   2.666   1.893 -1.6908 -0.0611  1.2604
 1103WAT      O 3392   1.964   0.012   1.601  0.0094 -0.0729  0.4279
 1103WAT     H1 3393   2.029   0.018   1.671  1.2237  0.3940 -0.6983
 1103WAT     H2 3394   1.952  -0.082   1.587 -0.0200 -0.1638  1.0550
 1104WAT      O 3395   1.331   2.519   1.934 -0.2199  0.1311 -0.0641
 1104WAT     H1 3396   1.328   2.431   1.972 -1.3727  0.5423  0.8364
 1104WAT     H2 3397   1.420   2.549   1.952 -0.2238 -0.3470  0.8090
 1105WAT      O 3398   1.855   0.967   3.666 -0.2863  0.3685 -0.7970
 1105WAT     H1 3399   1.795   0.972   3.740  1.0360 -1.4035  0.5042
 1105WAT     H2 3400   1.819   1.027   3.601 -2.0083  1.2944  0.9135
 1106WAT      O 3401   1.467   0.314   3.076  0.3734 -0.4654  0.0936
 1106WAT     H1 3402   1.420   0.251   3.021  0.5323 -1.1506  0.7281
 1106WAT     H2 3403   1.531   0.262   3.123  0.1440  0.0881  1.0377
 1107WAT      O 3404   0.478   2.940   0.313  0.3360 -0.7973  0.1513
 1107WAT     H1 3405   0.431   2.964   0.233 -1.2622 -1.2287  0.9317
 1107WAT     H2 3406   0.568   2.970   0.297 -0.7455  2.7017 -0.2529
 1108WAT      O 3407   1.022   0.290   3.586  1.4030 -0.7046  0.0623
 1108WAT     H1 3408   0.945   0.245   3.552  0.8474  1.4087 -1.7335
 1108WAT     H2 3409   0.992   0.331   3.667  0.4566  0.4180 -0.8144
 1109WAT      O 3410   3.149   2.707   3.422  0.2621  0.4113  0.0095
 1109WAT     H1 3411   3.197   2.757   3.488 -0.8489  1.8379 -0.2198
 1109WAT     H2 3412   3.127   2.625   3.465  0.9224  0.6853  0.8821
 1110WAT      O 3413   1.862   3.270   1.740 -0.2075  0.6794 -0.0274
 1110WAT     H1 3414   1.855   3.314   1.825  0.8083  1.5882 -0.3847
 1110WAT     H2 3415   1.827   3.333   1.677 -2.3608 -0.5612 -0.1712
 1111WAT      O 3416   1.585   0.810   1.405 -0.1816  0.5403 -0.8078
 1111WAT     H1 3417   1.635   0.890   1.421 -1.5112  1.0852  0.9409
 1111WAT     H2 3418   1.611   0.751   1.476 -0.3975  0.0134 -1.1571
 1112WAT      O 3419   2.806   2.318   2.612 -0.1639  0.7063 -0.3469
 1112WAT     H1 3420   2.719   2.311   2.651 -0.0742 -0.5309 -0.3371
 1112WAT     H2 3421   2.796   2.285   2.523  0.6795 -1.3824  0.2787
 1113WAT      O 3422   2.312   0.996   1.262 -0.3132  0.0436  0.0797
 1113WAT     H1 3423   2.399   0.958   1.277  0.2233  2.1686  3.1097
 1113WAT     H2 3424   2.266   0.986   1.345 -0.9775  3.6508  0.3189
 1114WAT      O 3425   0.098   2.056   0.894  0.2454  0.4843  0.1214
 1114WAT     H1 3426   0.062   2.139   0.927 -0.9353  0.2061 -0.4081
 1114WAT     H2 3427   0.124   2.009   0.973  1.1649  1.4447  0.4215
 1115WAT      O 3428   1.024   1.422   1.917 -0.0837  0.0643 -0.3305
 1115WAT     H1 3429   1.019   1.341   1.967 -1.5446 -0.2857 -1.0178
 1115WAT     H2 3430   1.097   1.408   1.856  0.3537 -0.3017  0.2596
 1116WAT      O 3431   3.051   3.240   3.902 -0.1522  0.0796 -0.4029
 1116WAT     H1 3432   3.092   3.317   3.943 -1.3721  0.3903  0.3092
 1116WAT     H2 3433   2.957   3.259   3.907 -0.5514 -1.9774  0.8590
 1117WAT      O 3434   3.175   0.315   3.255 -0.7334  0.8600  0.0665
 1117WAT     H1 3435   3.206   0.293   3.167  1.6336  0.5015  0.8933
 1117WAT     H2 3436   3.213   0.247   3.311 -0.7166  2.0455  1.5688
 1118WAT      O 3437   0.442   2.399   2.801  0.4870 -0.2705 -0.9398
 1118WAT     H1 3438   0.493   2.417   2.880 -0.2405  0.2135 -0.5671
 1118WAT     H2 3439   0.374   2.338   2.830  0.6504 -0.6552 -1.3566
 1119WAT      O 3440   0.777   1.880   1.123 -0.1189 -0.1625 -0.4470
 1119WAT     H1 3441   0.829   1.799   1.114 -1.8459 -1.2610 -0.9609
 1119WAT     H2 3442   0.833   1.938   1.175  1.0189 -1.8247  0.2874
 1120WAT      O 3443   1.348   2.223   0.062  0.3207  0.1386 -0.3473
 1120WAT     H1 3444   1.392   2.178  -0.010 -0.1806 -0.1019 -0.5098
 1120WAT     H2 3445   1.265   2.176   0.071  0.0844  0.6114 -0.0714
 1121WAT      O 3446   1.975   0.526   3.138 -0.0619  0.4879  0.1491
 1121WAT     H1 3447   1.903   0.582   3.108  0.0604  1.1406  1.0173
 1121WAT     H2 3448   1.997   0.561   3.224  1.1705  0.1783 -0.0296
 1122WAT      O 3449   3.034   1.726   0.917  0.5499 -0.6186  0.2122
 1122WAT     H1 3450   3.042   1.763   1.005 -3.5980  0.6159  0.3169
 1122WAT     H2 3451   2.944   1.693   0.914  0.0514  0.5460 -3.9176
 1123WAT      O 3452   0.162   2.194   1.529  0.0124 -0.2020  0.9504
 1123WAT     H1 3453   0.161   2.282   1.491  1.0606 -0.2706  0.7124
 1123WAT     H2 3454   0.151   2.208   1.623  0.2898  0.2058  0.9271
 1124WAT      O 3455   2.753   2.961   3.878 -0.2777  0.0341  0.0234
 1124WAT     H1 3456   2.694   2.949   3.804 -1.3543 -0.0859  0.8879
 1124WAT     H2 3457   2.838   2.979   3.838 -0.7332 -0.5552 -1.2388
 1125WAT      O 3458   1.584   3.963   0.151 -0.3436  0.1088  0.3720
 1125WAT     H1 3459   1.667   3.994   0.187  0.9020 -1.2668 -1.1968
 1125WAT     H2 3460   1.567   3.881   0.197  0.2562 -0.6610 -0.7405
 1126WAT      O 3461   2.222   2.583   0.186 -0.3200 -0.0046 -0.1621
 1126WAT     H1 3462   2.244   2.520   0.255  0.4329 -0.4262 -0.7752
 1126WAT     H2 3463   2.191   2.660   0.233  0.5395 -0.1526  0.6612
 1127WAT      O 3464   2.929   3.467   1.987 -0.5503  0.0445 -0.1959
 1127WAT     H1 3465   2.993   3.519   1.938 -1.6878  0.4943 -1.2580
 1127WAT     H2 3466   2.920   3.386   1.936 -0.6502 -0.1233  0.0857
 1128WAT      O 3467   1.419   2.529   2.790 -0.0798 -0.1107 -0.4593
 1128WAT     H1 3468   1.486   2.531   2.858  0.6469  0.0731 -1.1626
 1128WAT     H2 3469   1.357   2.461   2.819  0.2473 -0.0755  0.3428
 1129WAT      O 3470   3.072   3.740   0.096 -0.4278 -0.7837 -0.2264
 1129WAT     H1 3471   3.134   3.781   0.156 -2.6253 -0.4663  1.9716
 1129WAT     H2 3472   3.063   3.803   0.024  0.5741 -0.1254  0.1993
 1130WAT      O 3473   1.319   2.826   2.246  0.6342  0.1779  0.0229
 1130WAT     H1 3474   1.307   2.921   2.259  1.9513  0.4477 -0.5861
 1130WAT     H2 3475   1.362   2.819   2.161  0.7983 -0.9635  0.1902
 1131WAT      O 3476   0.639   0.325   2.135  0.4280 -0.8942 -0.1082
 1131WAT     H1 3477   0.575   0.392   2.110  1.0200 -0.5940 -0.8552
 1131WAT     H2 3478   0.636   0.262   2.064 -0.0075 -1.5907  0.5148
 1132WAT      O 3479   0.278   2.095   2.532 -0.0483 -0.1141 -0.0777
 1132WAT     H1 3480   0.264   2.003   2.513  1.9988 -0.6003  0.4886
 1132WAT     H2 3481   0.208   2.140   2.485 -1.8747 -2.0044  0.6942
 1133WAT      O 3482   1.517   2.851   2.062 -0.2148 -0.4883 -0.0488
 1133WAT     H1 3483   1.560   2.890   1.986 -1.2860 -1.5791 -1.2689
 1133WAT     H2 3484   1.577   2.783   2.092  0.2532  0.0066  0.1267
 1134WAT      O 3485   1.451   0.312   3.757  0.4301 -0.3156  0.4141
 1134WAT     H1 3486   1.401   0.354   3.827  1.0669 -0.2214  0.8193
 1134WAT     H2 3487   1.488   0.384   3.707  2.2197 -0.3432  1.6096
 1135WAT      O 3488   2.664   2.000   1.530 -0.3809  0.1815 -0.2943
 1135WAT     H1 3489   2.585   2.045   1.561 -0.0538 -0.3886  1.5328
 1135WAT     H2 3490   2.734   2.064   1.541  0.0148 -0.5488  1.9020
 1136WAT      O 3491   0.890   1.740   1.797  0.0303 -0.0787 -0.0798
 1136WAT     H1 3492   0.884   1.743   1.702 -0.9017  0.0765 -0.0278
 1136WAT     H2 3493   0.983   1.729   1.815  0.0984 -1.1946 -1.0268
 1137WAT      O 3494   1.142   2.258   1.317 -0.0476  0.1142  0.5247
 1137WAT     H1 3495   1.161   2.187   1.256  1.8058  1.4016 -0.5078
 1137WAT     H2 3496   1.211   2.251   1.384  2.0244  2.5613 -1.1648
 1138WAT      O 3497   2.838   0.585   3.365 -0.2152 -0.5384 -0.0250
 1138WAT     H1 3498   2.913   0.591   3.306  0.8170 -0.6688  1.2365
 1138WAT     H2 3499   2.831   0.673   3.404 -0.9752 -0.4134 -0.4114
 1139WAT      O 3500   0.589   3.947   1.682 -0.0248 -0.4304  0.3722
 1139WAT     H1 3501   0.504   3.936   1.726 -0.4044 -0.5846 -0.3729
 1139WAT     H2 3502   0.626   3.858   1.681 -0.3871 -0.5772 -0.3399
 1140WAT      O 3503   2.461   4.082   2.101  0.2899  0.1960  0.2421
 1140WAT     H1 3504   2.422   4.038   2.176 -0.3307 -0.4867 -0.4585
 1140WAT     H2 3505   2.484   4.011   2.041  0.9242  0.7193 -0.1505
 1141WAT      O 3506   0.923   0.177   3.168  0.2404 -0.3931  0.1075
 1141WAT     H1 3507   0.958   0.200   3.082  0.8730 -0.0166  0.4623
 1141WAT     H2 3508   0.907   0.083   3.163 -0.6594 -0.2206 -0.7471
 1142WAT      O 3509   0.074   2.864   3.274 -0.2910 -0.1085  0.0952
 1142WAT     H1 3510   0.155   2.833   3.235  0.7077  0.6291  1.5156
 1142WAT     H2 3511   0.095   2.951   3.308 -1.9513  0.5086 -0.3578
 1143WAT      O 3512   0.635   0.770   2.388 -0.2430  0.2121 -0.2141
 1143WAT     H1 3513   0.564   0.807   2.335  0.5707  1.1685 -0.6861
 1143WAT     H2 3514   0.650   0.835   2.457 -0.5524 -0.5081  0.5488
 1144WAT      O 3515   2.797   3.823   0.901 -0.3890  0.1869  0.5072
 1144WAT     H1 3516   2.855   3.875   0.845  1.1394  0.1839  2.0116
 1144WAT     H2 3517   2.753   3.887   0.957 -0.3872  0.0367  0.6817
 1145WAT      O 3518   2.855   3.363   1.278 -0.5875  0.1933 -0.0461
 1145WAT     H1 3519   2.799   3.359   1.200  0.0940  0.9155 -0.5952
 1145WAT     H2 3520   2.853   3.454   1.304  0.3055  0.2267 -0.0615
 1146WAT      O 3521   0.510   2.069   1.851 -0.4069  0.1263 -0.2415
 1146WAT     H1 3522   0.460   2.138   1.807 -0.6230 -0.1857 -0.4910
 1146WAT     H2 3523   0.599   2.080   1.817 -0.0026  1.4566  1.1172
 1147WAT      O 3524   0.176   1.746   0.784 -0.5368 -0.0170 -0.0901
 1147WAT     H1 3525   0.125   1.676   0.824 -0.1703  0.3009  0.9600
 1147WAT     H2 3526   0.200   1.803   0.857  1.8687 -0.5015 -0.4151
 1148WAT      O 3527   2.491   0.642   2.889  0.0102  0.0702 -0.3311
 1148WAT     H1 3528   2.473   0.731   2.920 -0.2302  0.6018 -1.9131
 1148WAT     H2 3529   2.585   0.632   2.902  0.0968  0.6783 -0.4483
 1149WAT      O 3530   2.043   0.039   1.312 -0.1032 -0.2429  0.0415
 1149WAT     H1 3531   1.982   0.021   1.384 -0.3832 -0.5595 -0.2774
 1149WAT     H2 3532   2.090  -0.043   1.299  0.6971  0.1144  0.5645
 1150WAT      O 3533   1.137   1.111   0.299 -0.4015  0.0059 -0.3158
 1150WAT     H1 3534   1.191   1.036   0.274 -0.0094 -0.1605  0.9514
 1150WAT     H2 3535   1.189   1.157   0.365 -1.2011  0.6430 -0.1182
 1151WAT      O 3536   0.515   2.153   3.903 -0.0568 -0.1400 -0.5537
 1151WAT     H1 3537   0.437   2.118   3.945  0.1738  0.9738  0.8874
 1151WAT     H2 3538   0.571   2.077   3.887  0.1558 -0.5888  1.8909
 1152WAT      O 3539   3.284   0.231   3.006 -0.4101 -0.1647  0.6552
 1152WAT     H1 3540   3.379   0.230   3.019 -0.4888  1.2486  1.5810
 1152WAT     H2 3541   3.272   0.273   2.921 -0.2142 -0.4223  0.4976
 1153WAT      O 3542   0.411   3.906   3.150 -0.6381 -0.2240  0.1149
 1153WAT     H1 3543   0.399   3.812   3.158 -1.0173 -0.2657 -0.8861
 1153WAT     H2 3544   0.506   3.919   3.157 -0.4614 -0.8148 -1.0809
 1154WAT      O 3545   3.026   1.626   1.242  0.1610  0.5860 -0.3102
 1154WAT     H1 3546   3.097   1.574   1.280 -1.2448 -0.4162  1.0368
 1154WAT     H2 3547   2.953   1.565   1.234 -0.4451  1.4825 -2.0927
 1155WAT      O 3548   2.495   0.085   1.133  0.7228  0.3856  0.1114
 1155WAT     H1 3549   2.431   0.077   1.204  0.0135 -0.9659 -0.6389
 1155WAT     H2 3550   2.490   0.177   1.107 -0.6096  0.4047  0.3653
 1156WAT      O 3551   2.203   1.694   0.935  0.3172  0.6202 -0.4891
 1156WAT     H1 3552   2.109   1.703   0.920 -0.2554  1.4141  2.7595
 1156WAT     H2 3553   2.241   1.770   0.891 -0.6187  0.5968 -1.3715
 1157WAT      O 3554   1.465   2.144   3.794 -0.1297  0.0949 -0.2885
 1157WAT     H1 3555   1.538   2.119   3.738  0.7052  1.1534  0.2993
 1157WAT     H2 3556   1.389   2.100   3.756  1.0482 -2.3812  0.0362
 1158WAT      O 3557   2.522   0.973   3.714  0.1754  0.6797 -0.2543
 1158WAT     H1 3558   2.487   0.903   3.660  1.1061 -0.2758  0.3464
 1158WAT     H2 3559   2.453   0.991   3.777  0.0108  0.1561 -0.2804
 1159WAT      O 3560   1.877   2.893   2.215  0.5648 -0.1117 -0.6524
 1159WAT     H1 3561   1.854   2.979   2.251 -0.5821 -0.6603 -0.0085
 1159WAT     H2 3562   1.847   2.898   2.124 -0.5296 -0.1848 -0.3161
 1160WAT      O 3563   0.397   4.067   1.524 -0.1811  0.4152  0.2925
 1160WAT     H1 3564   0.469   4.055   1.587  0.7497 -0.0637 -0.8330
 1160WAT     H2 3565   0.333   4.001   1.550  0.4939 -0.2410  0.3512
 1161WAT      O 3566   1.376   3.334   3.350  0.0434 -0.1921 -0.1723
 1161WAT     H1 3567   1.286   3.317   3.379  0.3238 -0.3710  0.5993
 1161WAT     H2 3568   1.431   3.298   3.420  0.7158  0.0488 -0.5722
 1162WAT      O 3569   1.547   0.682   2.035 -0.2304 -0.2011 -0.7851
 1162WAT     H1 3570   1.527   0.775   2.029  0.1505 -0.1777 -2.1298
 1162WAT     H2 3571   1.598   0.664   1.956 -0.5770 -1.6239 -0.7067
 1163WAT      O 3572   0.208   1.885   3.148  0.0209 -0.2585 -0.1878
 1163WAT     H1 3573   0.287   1.927   3.183  1.8464 -2.4247 -1.3866
 1163WAT     H2 3574   0.168   1.952   3.093  1.5842  0.6313 -0.3112
 1164WAT      O 3575   1.456   0.162   1.518  0.6042 -0.3474 -0.0731
 1164WAT     H1 3576   1.361   0.171   1.532  0.5539  1.1343 -1.0977
 1164WAT     H2 3577   1.464   0.118   1.434  0.8253 -0.3788 -0.0364
 1165WAT      O 3578   1.054   1.642   3.923  0.7576 -0.2425 -0.0320
 1165WAT     H1 3579   1.018   1.559   3.955  0.7692 -0.7320 -1.2309
 1165WAT     H2 3580   0.979   1.701   3.918  0.4312 -0.6925 -0.7206
 1166WAT      O 3581   0.471   3.702   0.502 -0.2986 -0.2021 -0.4102
 1166WAT     H1 3582   0.397   3.762   0.515  1.0360  1.1885  1.1362
 1166WAT     H2 3583   0.514   3.698   0.587 -0.0423 -3.0407 -0.5827
 1167WAT      O 3584   0.196   1.183   0.689 -0.3949 -0.4110 -0.5623
 1167WAT     H1 3585   0.209   1.230   0.772 -3.3610 -0.8864  0.3104
 1167WAT     H2 3586   0.271   1.123   0.684 -0.8937 -1.5417  2.7058
 1168WAT      O 3587   2.458   0.772   0.174 -0.2230  0.1142  0.4570
 1168WAT     H1 3588   2.531   0.713   0.155  0.4269  1.0669 -0.1856
 1168WAT     H2 3589   2.482   0.814   0.256 -0.9047 -0.8341  1.1484
 1169WAT      O 3590   0.324   2.418   2.361 -0.7883 -0.4011  0.2562
 1169WAT     H1 3591   0.260   2.489   2.360 -1.4564 -0.9498  1.5305
 1169WAT     H2 3592   0.378   2.437   2.438 -0.3381 -0.7258  0.0175
 1170WAT      O 3593   0.337   0.063   3.099 -0.0019  0.4639  0.1947
 1170WAT     H1 3594   0.372  -0.026   3.102  0.5561  0.6412 -0.6197
 1170WAT     H2 3595   0.242   0.051   3.105 -0.2890 -0.5340 -3.4978
 1171WAT      O 3596   2.056   3.265   0.485 -0.0127  0.3305 -0.8978
 1171WAT     H1 3597   1.985   3.203   0.469 -1.2014  1.5803 -0.6543
 1171WAT     H2 3598   2.097   3.235   0.566 -2.9111  1.8296  1.3299
 1172WAT      O 3599   0.511   0.514   0.098  0.1935  0.5352  0.1707
 1172WAT     H1 3600   0.560   0.585   0.056  0.4000  0.4415  0.2479
 1172WAT     H2 3601   0.568   0.438   0.088 -1.1150 -0.2192 -2.1672
 1173WAT      O 3602   0.024   3.963   3.890 -0.1005 -0.4062  0.2824
 1173WAT     H1 3603   0.022   4.023   3.815 -0.5616 -1.5323 -0.6506
 1173WAT     H2 3604   0.074   3.888   3.859  0.6719 -0.4192  1.5090
 1174WAT      O 3605   2.995   1.223   3.808 -0.2482  0.1104 -0.5668
 1174WAT     H1 3606   2.929   1.233   3.876  0.2154  0.8003 -0.2002
 1174WAT     H2 3607   2.949   1.241   3.726 -0.6051  0.1627 -0.3541
 1175WAT      O 3608   1.357   4.055   3.949 -0.0814  0.0065 -0.2674
 1175WAT     H1 3609   1.375   4.017   3.863 -1.1743  0.2252 -0.6092
 1175WAT     H2 3610   1.438   4.043   3.998 -0.2684 -2.5165 -0.4405
 1176WAT      O 3611   2.026   2.218   0.817 -0.1811 -0.0589 -0.1287
 1176WAT     H1 3612   1.934   2.229   0.840 -0.3941 -1.0433 -0.4498
 1176WAT     H2 3613   2.072   2.285   0.868 -1.1072  0.6737 -0.2331
 1177WAT      O 3614   0.026   2.936   1.152  0.0064  0.5862  0.0870
 1177WAT     H1 3615   0.037   3.031   1.150  1.0244  0.4710 -1.2074
 1177WAT     H2 3616   0.063   2.906   1.069 -1.0215 -0.8747  0.1158
 1178WAT      O 3617   1.850   2.746   3.259 -0.2393 -0.3474  0.2516
 1178WAT     H1 3618   1.919   2.682   3.245  1.2001  0.9255  1.2418
 1178WAT     H2 3619   1.847   2.796   3.177 -0.7757 -1.1077 -0.2024
 1179WAT      O 3620   3.642   2.166   1.139  0.0600  0.0375  0.0079
 1179WAT     H1 3621   3.615   2.252   1.108  1.1162  0.1995 -0.5193
 1179WAT     H2 3622   3.569   2.135   1.191 -1.5202  0.0829 -2.0519
 1180WAT      O 3623   0.781   0.219   2.841 -1.0076 -0.3420 -0.1667
 1180WAT     H1 3624   0.773   0.277   2.765 -0.4349  0.9807  0.7399
 1180WAT     H2 3625   0.699   0.233   2.890 -1.3456 -1.1373 -0.4875
 1181WAT      O 3626   1.622   0.842   1.794 -0.2541 -0.2525  0.2009
 1181WAT     H1 3627   1.653   0.779   1.728 -0.7476 -0.6867  0.3802
 1181WAT     H2 3628   1.699   0.894   1.815 -0.0330 -0.2593 -0.5540
 1182WAT      O 3629   0.099   1.036   0.927 -0.0763 -0.3798  0.4958
 1182WAT     H1 3630   0.013   1.037   0.885 -0.6740 -0.5222  1.6703
 1182WAT     H2 3631   0.090   1.097   1.001  0.5356 -1.0722  1.1639
 1183WAT      O 3632   3.316   2.360   2.065 -0.3974  0.4762  0.2444
 1183WAT     H1 3633   3.362   2.440   2.088  0.1445  0.5661 -1.0371
 1183WAT     H2 3634   3.351   2.336   1.979 -0.6024 -1.0885  0.5529
 1184WAT      O 3635   3.375   2.941   0.373 -0.2099 -0.4344  0.2780
 1184WAT     H1 3636   3.354   2.893   0.293  0.4876  0.3161 -0.3640
 1184WAT     H2 3637   3.346   3.030   0.356  2.1509  0.3225 -0.1153
 1185WAT      O 3638   0.661   3.956   3.100 -0.0188  0.5128  0.5204
 1185WAT     H1 3639   0.726   3.892   3.069 -1.1762 -0.3282 -0.2388
 1185WAT     H2 3640   0.709   4.008   3.165  1.2921 -0.3607  0.3056
 1186WAT      O 3641   2.173   3.505   3.109  0.1232 -0.2931  0.0758
 1186WAT     H1 3642   2.202   3.438   3.046  0.0109  0.6338 -1.0049
 1186WAT     H2 3643   2.158   3.457   3.190  1.2204 -1.3775 -0.3335
 1187WAT      O 3644   1.841   1.348   0.295 -0.2422 -0.5435  0.3109
 1187WAT     H1 3645   1.926   1.305   0.310  0.7836  1.5832  1.0131
 1187WAT     H2 3646   1.797   1.343   0.379  0.9790  1.9361  1.1835
 1188WAT      O 3647   3.594   1.502   1.172 -0.0640 -0.4914 -0.0905
 1188WAT     H1 3648   3.541   1.485   1.094  0.2004 -1.6850 -0.0279
 1188WAT     H2 3649   3.606   1.416   1.212 -0.6743  0.1731  1.5893
 1189WAT      O 3650   1.647   0.515   3.223 -0.0347  0.3138  0.8951
 1189WAT     H1 3651   1.702   0.466   3.284  0.0421 -2.2805 -1.1018
 1189WAT     H2 3652   1.582   0.452   3.192 -0.5642  1.7289 -1.0831
 1190WAT      O 3653   2.098   3.681   1.555 -0.0604 -0.4831 -0.2147
 1190WAT     H1 3654   2.041   3.755   1.534 -1.1154 -0.8479  1.2507
 1190WAT     H2 3655   2.171   3.690   1.494 -0.7552  1.0749 -0.8784
 1191WAT      O 3656   1.056   0.744   2.956  0.0418  0.4659  0.0002
 1191WAT     H1 3657   1.063   0.819   2.897 -1.0137  1.4611  1.0597
 1191WAT     H2 3658   1.011   0.779   3.034 -1.7186 -1.5419 -0.0025
 1192WAT      O 3659   3.239   3.130   2.853 -0.4637 -0.1328 -0.5111
 1192WAT     H1 3660   3.172   3.062   2.864 -0.6196  0.0185 -0.5415
 1192WAT     H2 3661   3.320   3.080   2.838 -0.3769 -0.3384  0.5530
 1193WAT      O 3662   2.169   2.230   1.727 -0.0849 -0.3535 -0.1215
 1193WAT     H1 3663   2.105   2.302   1.734 -1.0823 -1.1763 -0.5153
 1193WAT     H2 3664   2.250   2.273   1.700 -0.5277  0.6902  0.1323
 1194WAT      O 3665   1.506   3.227   3.557  0.0711 -0.2628  0.2140
 1194WAT     H1 3666   1.521   3.152   3.615 -2.3571 -2.2478 -1.4942
 1194WAT     H2 3667   1.452   3.286   3.609 -2.0112 -1.9753  0.1423
 1195WAT      O 3668   0.975   2.429   2.044 -0.1516 -0.5609  0.3685
 1195WAT     H1 3669   0.896   2.474   2.074  0.2135  0.2687  0.1029
 1195WAT     H2 3670   0.992   2.363   2.111 -1.1737 -0.8719  0.3315
 1196WAT      O 3671   1.057   3.564   2.974  0.1743  0.1371 -0.7567
 1196WAT     H1 3672   1.066   3.630   2.906 -0.2043  0.5635 -0.4030
 1196WAT     H2 3673   0.979   3.514   2.951  0.7317 -0.5098 -1.2846
 1197WAT      O 3674   1.433   3.003   0.397  0.3991 -0.1586  0.7631
 1197WAT     H1 3675   1.377   2.932   0.366  0.5852  0.3285 -0.7731
 1197WAT     H2 3676   1.376   3.080   0.397  0.7042  0.0706  0.5204
 1198WAT      O 3677   1.569   1.934   0.295  0.1009 -0.4656  0.1910
 1198WAT     H1 3678   1.640   1.908   0.353  0.1208 -0.8710 -0.0135
 1198WAT     H2 3679   1.610   1.949   0.210  0.1247  0.4568  0.3540
 1199WAT      O 3680   0.902   0.623   2.498 -0.2300  0.0451 -0.6121
 1199WAT     H1 3681   0.831   0.606   2.436  0.6243  1.0441 -1.9228
 1199WAT     H2 3682   0.981   0.623   2.444  0.7641 -0.9109  0.7964
 1200WAT      O 3683   3.415   1.813   1.074 -0.1065  0.1703 -0.1412
 1200WAT     H1 3684   3.379   1.751   1.010  0.0071 -0.7826  0.6882
 1200WAT     H2 3685   3.340   1.865   1.102 -0.9105 -1.7851  1.5698
 1201WAT      O 3686   0.562   3.530   0.338  0.7562 -0.0104 -0.4127
 1201WAT     H1 3687   0.516   3.533   0.254  1.1087  2.3914 -0.5770
 1201WAT     H2 3688   0.517   3.594   0.392  1.0122 -0.9925  1.0111
 1202WAT      O 3689   0.749   1.524   1.889 -0.4993  0.0617 -0.3937
 1202WAT     H1 3690   0.774   1.616   1.900 -0.7867 -0.0008  0.9393
 1202WAT     H2 3691   0.832   1.477   1.886 -0.2899 -0.0737  3.3307
 1203WAT      O 3692   0.668   0.699   3.957  0.3725 -0.3837 -0.0090
 1203WAT     H1 3693   0.735   0.755   3.995  1.1507 -0.8430 -0.6602
 1203WAT     H2 3694   0.658   0.731   3.867  0.6403 -1.1172 -0.3066
 1204WAT      O 3695   2.979   0.744   1.832  0.4662 -0.4819 -0.0235
 1204WAT     H1 3696   3.030   0.823   1.813 -0.9950  0.4806 -0.0913
 1204WAT     H2 3697   2.938   0.722   1.748  1.5335 -1.8421 -0.2196
 1205WAT      O 3698   2.067   2.921   0.017 -0.4982  0.3496 -0.0801
 1205WAT     H1 3699   2.125   2.976  -0.037  1.2800 -1.3045  0.0260
 1205WAT     H2 3700   2.058   2.840  -0.032  0.6029 -0.9436  1.7237
 1206WAT      O 3701   3.623   1.483   1.540 -0.3065  0.4240 -0.3586
 1206WAT     H1 3702   3.716   1.497   1.525 -0.0104 -1.2270 -0.2491
 1206WAT     H2 3703   3.616   1.467   1.635 -0.5838 -0.1769 -0.4757
 1207WAT      O 3704   1.282   0.734   1.653  0.2754  0.2570 -0.1942
 1207WAT     H1 3705   1.266   0.781   1.571  0.7177 -0.3061 -0.6151
 1207WAT     H2 3706   1.376   0.716   1.652  0.0754 -0.8641 -0.1802
 1208WAT      O 3707   2.550   2.920   2.116  0.1882 -0.4150 -0.0683
 1208WAT     H1 3708   2.482   2.892   2.177  0.7775 -1.8331 -0.0108
 1208WAT     H2 3709   2.629   2.926   2.170  0.7247 -1.7269 -0.6538
 1209WAT      O 3710   2.694   0.631   0.191 -0.2592 -0.3729 -0.2924
 1209WAT     H1 3711   2.749   0.699   0.152 -2.2144  1.5877  0.1052
 1209WAT     H2 3712   2.728   0.621   0.280 -1.3682  1.9777  0.4949
 1210WAT      O 3713   2.646   1.181   1.512 -0.3825  0.1162 -0.0618
 1210WAT     H1 3714   2.588   1.164   1.437 -0.7935  0.1828  0.2382
 1210WAT     H2 3715   2.673   1.095   1.542  0.0302  0.0988 -0.4774
 1211WAT      O 3716   2.406   3.278   2.602 -0.0860 -0.1467  0.4325
 1211WAT     H1 3717   2.452   3.253   2.522  0.4876 -1.1280  1.0390
 1211WAT     H2 3718   2.324   3.230   2.599 -0.6240  0.7974 -0.1575
 1212WAT      O 3719   3.134   1.656   2.809  0.0648 -0.2083 -0.1529
 1212WAT     H1 3720   3.171   1.609   2.734 -0.9708 -3.5967  1.2941
 1212WAT     H2 3721   3.047   1.618   2.821 -0.9558  2.2716  1.1016
 1213WAT      O 3722   0.237   1.220   2.119 -0.2051  0.4195 -0.1314
 1213WAT     H1 3723   0.309   1.173   2.078 -0.2720  1.6627 -1.7391
 1213WAT     H2 3724   0.214   1.290   2.058 -2.4734  0.3653  0.5330
 1214WAT      O 3725   2.108   1.439   1.185 -0.1717  0.2540 -0.5321
 1214WAT     H1 3726   2.020   1.414   1.214 -0.3772  1.0511 -0.4438
 1214WAT     H2 3727   2.115   1.532   1.207  1.4759 -0.2585  1.4691
 1215WAT      O 3728   1.136   1.165   2.771 -0.3472 -0.2694 -0.0542
 1215WAT     H1 3729   1.145   1.131   2.682 -2.2407 -1.1380  0.0418
 1215WAT     H2 3730   1.062   1.117   2.807  0.3843  0.0703  2.0050
 1216WAT      O 3731   3.313   1.276   0.876  0.0470 -0.2312  0.5383
 1216WAT     H1 3732   3.265   1.216   0.818 -1.7682 -0.0402  1.7730
 1216WAT     H2 3733   3.265   1.274   0.959  2.0305  0.2166  1.7755
 1217WAT      O 3734   0.915   1.555   3.069 -0.1147 -0.5689  0.0448
 1217WAT     H1 3735   0.959   1.522   2.990  0.7717 -0.6994  0.5707
 1217WAT     H2 3736   0.853   1.620   3.037  0.7458 -0.0909 -0.7204
 1218WAT      O 3737   3.009   0.152   2.966 -0.5141 -0.2468  0.5552
 1218WAT     H1 3738   2.975   0.130   3.052  0.5035 -1.0830  0.7610
 1218WAT     H2 3739   3.103   0.163   2.980 -0.1773 -1.3905 -0.6275
 1219WAT      O 3740   1.509   2.798   1.649  0.0337 -0.4581  0.0597
 1219WAT     H1 3741   1.414   2.793   1.648 -0.0729  0.9750 -1.5823
 1219WAT     H2 3742   1.537   2.723   1.597 -0.0910 -1.6778  1.6726
 1220WAT      O 3743   2.379   3.929   1.840  0.1087 -0.1868  0.6124
 1220WAT     H1 3744   2.425   3.862   1.890 -1.9790 -1.9665  0.3113
 1220WAT     H2 3745   2.352   3.885   1.760 -1.0538  1.0995  0.2565
 1221WAT      O 3746   2.847   1.960   3.771  0.4952  0.0128 -0.0676
 1221WAT     H1 3747   2.925   1.905   3.773 -0.3831 -1.3257 -0.7802
 1221WAT     H2 3748   2.797   1.927   3.696 -1.5272 -0.2958  1.3343
 1222WAT      O 3749   2.587   1.608   1.174  0.4612  0.1189 -0.2340
 1222WAT     H1 3750   2.503   1.563   1.169  0.7256 -0.4888  0.6708
 1222WAT     H2 3751   2.587   1.666   1.098  0.1618 -1.4558 -1.4762
 1223WAT      O 3752   2.182   2.281   2.452  0.2150 -0.3157 -0.6669
 1223WAT     H1 3753   2.111   2.219   2.438 -0.5209  0.1052  0.9781
 1223WAT     H2 3754   2.139   2.365   2.464  1.1181  0.2806 -1.4707
 1224WAT      O 3755   1.261   0.114   0.983 -0.1498 -0.3560  0.1453
 1224WAT     H1 3756   1.196   0.053   0.948 -2.7911  0.4722  3.1436
 1224WAT     H2 3757   1.227   0.201   0.959 -1.4276  0.1800  3.4473
 1225WAT      O 3758   3.208   2.783   2.894  0.3586  0.1039 -0.5517
 1225WAT     H1 3759   3.192   2.802   2.986  1.8481 -1.0610 -0.0209
 1225WAT     H2 3760   3.302   2.795   2.883  0.0870  1.0203 -2.1332
 1226WAT      O 3761   2.552   0.586   0.671  0.1974 -0.4526  0.1294
 1226WAT     H1 3762   2.493   0.578   0.745 -0.8036  0.8215 -0.4924
 1226WAT     H2 3763   2.623   0.642   0.703 -0.0665 -0.1729  0.2335
 1227WAT      O 3764   1.480   1.074   2.940 -0.5758  0.4711  0.0803
 1227WAT     H1 3765   1.413   1.009   2.960  0.3310 -1.0227 -1.4768
 1227WAT     H2 3766   1.471   1.140   3.009 -1.5122 -1.3089  1.7635
 1228WAT      O 3767   2.699   3.507   0.184  0.3057  0.1322  0.3365
 1228WAT     H1 3768   2.672   3.585   0.232  0.9413  1.1392 -0.8834
 1228WAT     H2 3769   2.692   3.436   0.248 -1.1716  1.0126  1.2342
 1229WAT      O 3770   0.253   1.303   0.932 -0.7376  0.2495 -0.0802
 1229WAT     H1 3771   0.185   1.274   0.994 -0.4582 -0.3047 -0.0262
 1229WAT     H2 3772   0.327   1.244   0.948 -1.1573 -0.8541 -1.9310
 1230WAT      O 3773   3.692   0.023   0.930 -0.2542 -0.1608  0.2677
 1230WAT     H1 3774   3.729  -0.055   0.970  0.1720  0.5937  1.3820
 1230WAT     H2 3775   3.600  -0.000   0.913 -0.3563 -0.6215  1.3706
 1231WAT      O 3776   1.877   3.192   2.312  0.1653 -0.0908  0.2158
 1231WAT     H1 3777   1.873   3.287   2.308  2.7536  0.1740  1.7811
 1231WAT     H2 3778   1.809   3.167   2.375  0.0077  0.7837  0.4013
 1232WAT      O 3779   3.202   2.479   0.609 -0.3059 -0.2978  0.3815
 1232WAT     H1 3780   3.238   2.549   0.663  0.3268 -0.7026  0.4877
 1232WAT     H2 3781   3.125   2.519   0.567  0.2826  0.5918  0.1129
 1233WAT      O 3782   3.256   1.999   1.820  0.0545 -0.0607  0.4205
 1233WAT     H1 3783   3.165   1.970   1.816 -0.6961  2.2633 -1.9357
 1233WAT     H2 3784   3.304   1.935   1.768 -0.4110 -0.6177  0.6579
 1234WAT      O 3785   3.700   0.408   1.142  0.3931  0.4927 -0.8167
 1234WAT     H1 3786   3.773   0.354   1.110  0.4823 -0.2890  0.6137
 1234WAT     H2 3787   3.694   0.480   1.080  2.1205  0.3462 -1.1882
 1235WAT      O 3788   2.867   0.181   3.734  0.0216  0.1634  0.5134
 1235WAT     H1 3789   2.869   0.246   3.663  1.3424 -1.4277 -1.0122
 1235WAT     H2 3790   2.951   0.191   3.778 -0.2620  0.2829  1.0292
 1236WAT      O 3791   3.223   3.127   0.868  0.4139 -0.0956 -0.3687
 1236WAT     H1 3792   3.253   3.202   0.920  3.1302  0.1059 -2.0188
 1236WAT     H2 3793   3.249   3.148   0.778 -1.3925 -1.7608 -1.3533
 1237WAT      O 3794   1.655   1.400   1.876  0.1899  0.4566 -0.3367
 1237WAT     H1 3795   1.635   1.405   1.970 -0.1786  1.1555 -0.4466
 1237WAT     H2 3796   1.584   1.449   1.834  0.3867  0.2002 -0.9778
 1238WAT      O 3797   2.041   2.130   1.166  0.2894  0.6039 -0.0043
 1238WAT     H1 3798   2.086   2.057   1.209  0.4008  0.2257 -0.7486
 1238WAT     H2 3799   2.080   2.209   1.204 -1.6714  0.3695  2.8226
 1239WAT      O 3800   2.300   1.240   2.928  0.0005 -0.2478  0.6169
 1239WAT     H1 3801   2.206   1.258   2.938 -0.1135  1.1969 -2.0628
 1239WAT     H2 3802   2.305   1.147   2.907 -1.1986  0.1453 -1.8300
 1240WAT      O 3803   0.794   3.894   0.956  0.1008  0.2619 -0.1634
 1240WAT     H1 3804   0.826   3.921   0.870  0.4300 -2.6986 -1.0712
 1240WAT     H2 3805   0.716   3.948   0.970  0.2410  1.0582 -2.1455
 1241WAT      O 3806   0.298   1.021   1.307  0.2573  0.1555 -0.1108
 1241WAT     H1 3807   0.348   1.102   1.315 -1.3360  1.1808 -0.0354
 1241WAT     H2 3808   0.336   0.962   1.371  0.4434  1.4004  0.9619
 1242WAT      O 3809   1.734   2.894   0.780  0.3596 -0.1055  0.2457
 1242WAT     H1 3810   1.809   2.868   0.727  0.5193 -0.2009  0.5139
 1242WAT     H2 3811   1.660   2.846   0.743  0.5274 -0.4133  0.3070
 1243WAT      O 3812   3.665   0.965   3.796  0.3232  0.4720 -0.1363
 1243WAT     H1 3813   3.757   0.955   3.821 -0.2750 -0.9149  1.7285
 1243WAT     H2 3814   3.621   0.993   3.877 -0.9748  0.6910 -0.8888
 1244WAT      O 3815   0.411   1.401   0.317  0.8923 -0.0694 -0.5002
 1244WAT     H1 3816   0.413   1.334   0.249 -1.8342 -0.3459 -0.4063
 1244WAT     H2 3817   0.388   1.481   0.272 -1.1862 -0.3025  0.0621
 1245WAT      O 3818   0.405   3.642   2.413  0.2693  0.5081  0.4316
 1245WAT     H1 3819   0.439   3.642   2.503  1.3973  2.5654  0.0601
 1245WAT     H2 3820   0.467   3.588   2.364  0.0685 -0.0046  0.7360
 1246WAT      O 3821   0.036   1.542   0.876 -0.5986  0.0022  0.1390
 1246WAT     H1 3822  -0.059   1.541   0.890 -0.4963  1.2041  1.0846
 1246WAT     H2 3823   0.048   1.501   0.790 -2.0576  0.8223 -0.4950
 1247WAT      O 3824   2.919   1.862   3.185 -0.7266  0.0146  0.0204
 1247WAT     H1 3825   2.851   1.822   3.239 -1.4522  0.2792 -0.6723
 1247WAT     H2 3826   2.995   1.805   3.197 -1.4475 -1.0365 -0.1922
 1248WAT      O 3827   2.667   3.274   0.380 -0.0371 -0.2359  0.2333
 1248WAT     H1 3828   2.657   3.179   0.394 -0.3868 -0.2324  0.0214
 1248WAT     H2 3829   2.668   3.310   0.469  0.8475 -0.5065  0.3396
 1249WAT      O 3830   3.624   1.906   1.632 -0.2657  0.0296  0.3508
 1249WAT     H1 3831   3.633   2.000   1.651 -1.2948  0.5794 -1.6704
 1249WAT     H2 3832   3.714   1.875   1.622  0.0421  1.0879 -0.2501
 1250WAT      O 3833   2.690   3.545   2.872  0.0636  0.4922  0.6236
 1250WAT     H1 3834   2.640   3.477   2.915  0.1526 -0.2146 -0.3579
 1250WAT     H2 3835   2.774   3.505   2.852  0.3414  1.0786  0.5840
 1251WAT      O 3836   0.277   1.132   3.234 -0.2158 -0.3615  0.1373
 1251WAT     H1 3837   0.315   1.140   3.322 -0.3514  1.8412  0.0550
 1251WAT     H2 3838   0.185   1.153   3.247  0.0447  1.4846 -0.7041
 1252WAT      O 3839   3.575   2.483   1.073 -0.2033 -0.6656 -0.2457
 1252WAT     H1 3840   3.483   2.508   1.066  0.2035  0.9569 -0.2185
 1252WAT     H2 3841   3.599   2.507   1.163  0.5397  0.0806 -0.6249
 1253WAT      O 3842   0.761   0.310   2.579 -0.8787  0.8131 -0.1460
 1253WAT     H1 3843   0.734   0.402   2.579 -0.3600  0.9819 -0.9999
 1253WAT     H2 3844   0.782   0.292   2.487  1.7563  0.6731  0.4185
 1254WAT      O 3845   2.428   2.596   0.598 -0.1030 -0.2083  0.4734
 1254WAT     H1 3846   2.339   2.582   0.564 -0.0664 -0.7883  0.6023
 1254WAT     H2 3847   2.446   2.517   0.649  1.3855 -1.1927 -1.4543
 1255WAT      O 3848   1.315   0.776   2.695 -0.1968 -0.2405 -0.5890
 1255WAT     H1 3849   1.310   0.803   2.787 -0.7591  0.8871 -0.9356
 1255WAT     H2 3850   1.323   0.681   2.699 -1.6853 -0.3490  0.5968
 1256WAT      O 3851   1.369   1.873   3.671 -0.0119 -0.4967 -0.2469
 1256WAT     H1 3852   1.333   1.857   3.584  0.8684 -0.2488 -0.6744
 1256WAT     H2 3853   1.464   1.877   3.657  0.0707  1.0005  0.4708
 1257WAT      O 3854   2.390   1.257   1.861 -0.2340  0.3534  0.4643
 1257WAT     H1 3855   2.308   1.251   1.909  1.0189  0.3328  2.7431
 1257WAT     H2 3856   2.446   1.190   1.900  0.4238 -0.6634 -2.0515
 1258WAT      O 3857   2.007   0.219   0.162  0.2635 -0.6139 -0.2629
 1258WAT     H1 3858   2.016   0.282   0.234  1.1619  1.3165 -1.9583
 1258WAT     H2 3859   2.096   0.191   0.143  0.2656  0.2990 -1.7577
 1259WAT      O 3860   1.829   2.177   2.011 -0.3692  0.4340  0.6032
 1259WAT     H1 3861   1.813   2.235   1.937 -0.1607  0.2790  0.4374
 1259WAT     H2 3862   1.834   2.090   1.973 -0.5659  0.3195  0.8390
 1260WAT      O 3863   3.432   4.090   3.250  0.0276  0.2583  0.2713
 1260WAT     H1 3864   3.441   4.026   3.320  1.7661  0.4480  0.2704
 1260WAT     H2 3865   3.376   4.047   3.185 -1.8405  0.1932  1.8426
 1261WAT      O 3866   1.564   3.009   3.730  0.2066  0.3424  0.0045
 1261WAT     H1 3867   1.571   2.925   3.777  0.1587  0.0965 -0.4203
 1261WAT     H2 3868   1.586   3.075   3.796  3.4041 -0.1550 -0.4037
 1262WAT      O 3869   3.300   1.259   2.049 -0.2067  0.5201  0.4856
 1262WAT     H1 3870   3.206   1.244   2.054 -1.1319  3.5116 -3.2347
 1262WAT     H2 3871   3.337   1.174   2.024 -2.2400 -0.2325 -0.1679
 1263WAT      O 3872   1.025   1.500   2.828  0.5362 -0.2942  0.7666
 1263WAT     H1 3873   0.986   1.436   2.768 -3.0384  1.3236  1.0872
 1263WAT     H2 3874   1.088   1.548   2.774 -1.3870  0.0415 -1.3284
 1264WAT      O 3875   1.119   2.003   2.249  0.1434  0.3034  0.1644
 1264WAT     H1 3876   1.214   2.005   2.257  0.0522  1.8021  1.2649
 1264WAT     H2 3877   1.103   2.011   2.155  1.0884 -0.9024 -0.1244
 1265WAT      O 3878   2.273   0.390   0.210 -0.1938 -0.0294 -0.6092
 1265WAT     H1 3879   2.276   0.315   0.268  1.1950  0.9715  0.7125
 1265WAT     H2 3880   2.245   0.463   0.266 -2.0048  0.3796 -1.9611
 1266WAT      O 3881   3.042   2.852   0.429  0.2080 -0.2828  0.0964
 1266WAT     H1 3882   3.062   2.922   0.368  2.0214 -1.3202 -0.5770
 1266WAT     H2 3883   3.086   2.877   0.510 -0.2169 -0.0385  0.2535
 1267WAT      O 3884   2.879   2.664   0.752  0.0372 -0.4841  0.0953
 1267WAT     H1 3885   2.853   2.578   0.786 -0.5299  0.0955  1.1785
 1267WAT     H2 3886   2.942   2.696   0.816 -0.2331  0.1729  0.0342
 1268WAT      O 3887   3.085   0.505   1.625  0.0632  0.3580  0.1440
 1268WAT     H1 3888   3.048   0.549   1.548 -0.2463 -0.8727 -0.4284
 1268WAT     H2 3889   3.169   0.548   1.639  0.7328 -0.2867 -1.7000
 1269WAT      O 3890   0.929   2.374   1.225  0.1100 -0.2869  0.4426
 1269WAT     H1 3891   1.001   2.321   1.259  0.3005 -1.6667 -1.9244
 1269WAT     H2 3892   0.864   2.374   1.296  1.5795 -0.7071  1.8354
 1270WAT      O 3893   2.062   0.203   1.984  0.0531  0.4329  0.0600
 1270WAT     H1 3894   1.973   0.182   2.012 -0.2462 -1.0939 -1.8348
 1270WAT     H2 3895   2.085   0.134   1.923  1.4488  2.3662 -1.7428
 1271WAT      O 3896   3.129   0.459   1.928 -0.1537 -0.4934  0.4564
 1271WAT     H1 3897   3.099   0.540   1.971 -1.3422 -0.9899  0.6056
 1271WAT     H2 3898   3.214   0.482   1.891 -1.5534  1.6867 -1.8008
 1272WAT      O 3899   0.392   3.733   3.642 -0.1101  0.2859  0.2107
 1272WAT     H1 3900   0.441   3.798   3.692  0.0575 -0.0875  0.5418
 1272WAT     H2 3901   0.458   3.668   3.617 -0.3427  0.0467  0.2138
 1273WAT      O 3902   3.567   2.578   2.523 -0.3405 -0.1178 -0.3941
 1273WAT     H1 3903   3.502   2.571   2.452  0.7143 -0.8365 -1.3195
 1273WAT     H2 3904   3.541   2.509   2.584  0.5361 -1.6304 -1.6356
 1274WAT      O 3905   0.874   0.007   1.884 -0.1907 -0.1319  0.3173
 1274WAT     H1 3906   0.782  -0.011   1.864 -0.1022  1.0575 -1.3832
 1274WAT     H2 3907   0.873   0.095   1.922  0.3302  0.3963 -0.8372
 1275WAT      O 3908   0.493   1.290   3.366 -0.7568  0.0280 -0.0995
 1275WAT     H1 3909   0.516   1.293   3.273  1.2317 -1.0601  0.3058
 1275WAT     H2 3910   0.525   1.205   3.396 -3.3941 -0.6486  1.1247
 1276WAT      O 3911   2.928   1.250   1.715  0.2948  0.3898 -0.4784
 1276WAT     H1 3912   2.871   1.300   1.657 -0.3530 -0.3057 -0.4682
 1276WAT     H2 3913   2.893   1.268   1.803 -1.0441 -1.3692 -0.5902
 1277WAT      O 3914   2.330   1.476   1.037 -0.5847  0.3955  0.1184
 1277WAT     H1 3915   2.267   1.543   1.010 -2.8502 -1.5634  0.2260
 1277WAT     H2 3916   2.293   1.439   1.116 -0.1245 -1.9090 -0.6871
 1278WAT      O 3917   1.352   1.413   3.355  0.7909  0.1615  0.3302
 1278WAT     H1 3918   1.321   1.498   3.325  0.9844 -0.4323 -1.7536
 1278WAT     H2 3919   1.398   1.431   3.436 -0.0992  1.8686  0.5035
 1279WAT      O 3920   0.795   2.917   3.051 -1.0116 -0.4735  0.4077
 1279WAT     H1 3921   0.769   2.853   2.984 -0.8776 -1.9729  1.7336
 1279WAT     H2 3922   0.771   3.001   3.013 -0.5559 -1.2285 -1.6991
 1280WAT      O 3923   0.330   1.087   2.360 -0.1277  0.3293  0.2651
 1280WAT     H1 3924   0.297   1.142   2.289  1.2513  1.3832  0.3896
 1280WAT     H2 3925   0.419   1.064   2.332  0.3632  0.5974  1.5679
 1281WAT      O 3926   0.458   0.639   3.127  0.1201  0.2250 -0.1409
 1281WAT     H1 3927   0.376   0.674   3.163 -0.9003  0.6404 -2.6450
 1281WAT     H2 3928   0.511   0.717   3.110  1.3404 -0.0686  1.9392
 1282WAT      O 3929   1.184   2.225   3.348  0.2857 -0.3333 -0.4129
 1282WAT     H1 3930   1.105   2.171   3.343  0.2249 -0.5311  1.6575
 1282WAT     H2 3931   1.197   2.240   3.442  1.4025  1.6545 -0.8255
 1283WAT      O 3932   1.269   2.810   3.160  0.0919  0.3945 -0.5382
 1283WAT     H1 3933   1.192   2.785   3.110  0.9157  0.1080 -1.7298
 1283WAT     H2 3934   1.239   2.877   3.221 -1.5004 -1.1509  0.4639
 1284WAT      O 3935   1.924   2.716   2.745 -0.0134 -0.1130 -0.9833
 1284WAT     H1 3936   1.962   2.655   2.808 -0.2088  0.1997 -0.5592
 1284WAT     H2 3937   1.833   2.726   2.772  0.2204  1.0014 -0.5521
 1285WAT      O 3938   0.795   0.497   1.289  0.1793  0.3246 -0.1170
 1285WAT     H1 3939   0.811   0.543   1.371  0.4213  0.8265 -0.4479
 1285WAT     H2 3940   0.707   0.525   1.263 -0.0772 -0.1708  0.1865
 1286WAT      O 3941   0.140   3.394   0.909  0.1982  0.2655 -0.0218
 1286WAT     H1 3942   0.045   3.402   0.899  0.4279  1.4917 -1.5698
 1286WAT     H2 3943   0.162   3.313   0.864 -0.1770 -0.3229  0.8443
 1287WAT      O 3944   0.002   3.852   3.242  0.7859 -0.4969  0.4563
 1287WAT     H1 3945  -0.061   3.923   3.257 -0.4170 -1.4405 -0.0175
 1287WAT     H2 3946   0.070   3.892   3.187  1.7232  1.0959  2.6071
 1288WAT      O 3947   0.271   3.752   3.915  0.1278  0.2132 -0.3617
 1288WAT     H1 3948   0.232   3.677   3.871  2.6325 -1.7987  0.5866
 1288WAT     H2 3949   0.268   3.729   4.008  0.9117  1.3044 -0.0537
 1289WAT      O 3950   3.152   0.980   1.870  0.2329 -0.4096  0.2270
 1289WAT     H1 3951   3.233   0.951   1.911  0.3158  1.2843  1.3712
 1289WAT     H2 3952   3.181   1.041   1.802 -0.0506 -0.3045  0.1997
 1290WAT      O 3953   2.375   3.940   2.304  0.1079  0.6412 -0.1476
 1290WAT     H1 3954   2.428   3.861   2.315 -0.2609  0.4549  0.2961
 1290WAT     H2 3955   2.351   3.966   2.393 -0.4274  0.8048 -0.3334
 1291WAT      O 3956   1.880   0.604   1.973 -1.0048 -0.1078 -0.1463
 1291WAT     H1 3957   1.921   0.539   2.029 -1.4204 -0.3694 -0.1387
 1291WAT     H2 3958   1.865   0.679   2.031 -1.1188 -0.2484  0.0076
 1292WAT      O 3959   2.638   3.533   3.562 -0.6137 -0.2599  0.0683
 1292WAT     H1 3960   2.716   3.552   3.511 -0.3948 -0.3094  0.3812
 1292WAT     H2 3961   2.651   3.580   3.645 -1.7302  1.1916 -0.5530
 1293WAT      O 3962   3.597   4.042   3.634  0.0460 -0.4629  0.8284
 1293WAT     H1 3963   3.632   3.954   3.623  0.6453 -0.3625  1.8828
 1293WAT     H2 3964   3.502   4.029   3.644 -0.4608 -0.6748 -2.8258
 1294WAT      O 3965   0.321   1.837   0.326 -0.0860 -0.0063 -0.1461
 1294WAT     H1 3966   0.347   1.782   0.400  0.2776  0.8269  0.3502
 1294WAT     H2 3967   0.342   1.784   0.249 -0.0416 -0.6935  0.3269
 1295WAT      O 3968   3.028   3.764   1.029  0.3126  0.4979 -0.2956
 1295WAT     H1 3969   2.938   3.757   0.997 -0.4073  1.0635  1.4772
 1295WAT     H2 3970   3.027   3.718   1.113  1.7256  0.4166 -0.2911
 1296WAT      O 3971   3.501   0.277   1.563 -0.3973  0.3760 -0.6683
 1296WAT     H1 3972   3.577   0.219   1.568 -1.1892 -0.8391 -1.9756
 1296WAT     H2 3973   3.521   0.336   1.490  0.6115  2.1523  0.9442
 1297WAT      O 3974   1.189   2.427   1.037 -0.0255  0.0209 -0.5593
 1297WAT     H1 3975   1.132   2.358   1.001 -0.2863  0.4045 -0.8907
 1297WAT     H2 3976   1.249   2.448   0.965  1.6792 -1.5584  0.2936
 1298WAT      O 3977   1.100   2.295   1.802 -0.1134 -0.0528  0.3273
 1298WAT     H1 3978   1.041   2.341   1.862 -1.2367 -2.0025  0.8058
 1298WAT     H2 3979   1.053   2.293   1.719  0.3882  0.5379  0.0196
 1299WAT      O 3980   3.653   3.005   2.411 -0.4399 -0.0233  0.2697
 1299WAT     H1 3981   3.608   3.010   2.326  0.2518 -0.3179 -0.1247
 1299WAT     H2 3982   3.744   3.028   2.391  0.0046 -1.3499  0.6990
 1300WAT      O 3983   3.431   1.811   2.180 -0.1703 -0.1142  0.1093
 1300WAT     H1 3984   3.410   1.898   2.144 -0.5432  0.0686  0.7541
 1300WAT     H2 3985   3.524   1.818   2.203  0.0866 -0.2479 -0.8394
 1301WAT      O 3986   3.203   3.972   2.119  0.0327  0.8095 -0.2801
 1301WAT     H1 3987   3.178   4.049   2.170  1.5625  0.5562  0.9204
 1301WAT     H2 3988   3.184   3.997   2.028 -3.0820  1.1393  0.3537
 1302WAT      O 3989   2.471   3.888   0.839 -0.0909  0.4033  0.5355
 1302WAT     H1 3990   2.414   3.941   0.783 -0.8893  1.4423  2.2295
 1302WAT     H2 3991   2.553   3.937   0.843  0.0096  0.2653  0.1957
 1303WAT      O 3992   1.363   3.830   1.231  0.3562  0.1226 -0.2552
 1303WAT     H1 3993   1.363   3.882   1.151  1.0318 -0.3117 -0.5459
 1303WAT     H2 3994   1.404   3.747   1.206  0.1618 -0.1885  0.4301
 1304WAT      O 3995   1.418   0.847   0.578 -0.1087 -0.2717  0.0472
 1304WAT     H1 3996   1.500   0.813   0.542  1.8004  1.9746  1.9200
 1304WAT     H2 3997   1.424   0.829   0.672 -0.3381  2.4632  0.6623
 1305WAT      O 3998   2.051   1.497   3.961 -0.1419  0.5652  0.1713
 1305WAT     H1 3999   2.092   1.524   4.043  0.5268  1.7684 -0.5156
 1305WAT     H2 4000   1.968   1.544   3.959 -0.1172  0.6085  0.1366
 1306WAT      O 4001   2.129   0.905   1.523 -0.4298  0.3196 -0.3373
 1306WAT     H1 4002   2.066   0.912   1.594  1.2770  1.9576  1.0919
 1306WAT     H2 4003   2.100   0.828   1.473 -1.3712 -1.2442  2.4218
 1307WAT      O 4004   2.717   2.487   0.916  0.6764 -0.3753 -0.7745
 1307WAT     H1 4005   2.644   2.473   0.856  1.2331  0.2363 -1.6060
 1307WAT     H2 4006   2.677   2.482   1.003 -0.2153 -0.8173 -1.1943
 1308WAT      O 4007   3.154   2.464   3.220  0.2532  0.5590 -1.0374
 1308WAT     H1 4008   3.157   2.467   3.316 -0.3801  0.6390 -1.0113
 1308WAT     H2 4009   3.233   2.511   3.192  1.9833 -1.9041 -0.5713
 1309WAT      O 4010   3.539   1.347   0.674  0.3398  0.3058  0.5588
 1309WAT     H1 4011   3.452   1.381   0.654  0.6756  0.8597  0.0157
 1309WAT     H2 4012   3.523   1.271   0.729 -0.7020 -1.8753 -2.5110
 1310WAT      O 4013   2.335   0.141   2.395 -0.2584 -0.2483  0.1046
 1310WAT     H1 4014   2.337   0.143   2.300 -0.2368 -1.5071  0.0677
 1310WAT     H2 4015   2.285   0.219   2.420 -0.8156 -0.2608 -0.9445
 1311WAT      O 4016   1.030   2.264   2.254 -0.0401 -0.4242  0.1337
 1311WAT     H1 4017   1.003   2.279   2.345 -3.6352 -0.4958 -0.7674
 1311WAT     H2 4018   1.047   2.170   2.250  1.7336 -0.1800  1.0356
 1312WAT      O 4019   0.981   0.003   2.690  0.4513 -0.1615 -0.3028
 1312WAT     H1 4020   0.968  -0.085   2.655 -1.1882 -0.9522  2.0211
 1312WAT     H2 4021   0.907   0.053   2.657  1.4596  0.4588 -1.7419
 1313WAT      O 4022   1.891   0.296   0.944  0.2964 -0.1679  0.2953
 1313WAT     H1 4023   1.924   0.207   0.946  0.7204 -0.0673 -1.0001
 1313WAT     H2 4024   1.878   0.314   0.851 -1.5316  0.4913  0.6446
 1314WAT      O 4025   2.013   0.775   2.891 -0.4944  0.1804 -0.9931
 1314WAT     H1 4026   2.054   0.701   2.847 -1.8452 -0.3428 -1.4095
 1314WAT     H2 4027   1.942   0.736   2.942  1.7626  0.5140  2.8832
 1315WAT      O 4028   1.546   1.812   2.022 -0.1504 -0.7435 -0.1084
 1315WAT     H1 4029   1.639   1.797   2.007  0.6092 -0.2317  3.2338
 1315WAT     H2 4030   1.508   1.725   2.030  0.1957 -0.9478 -0.6254
 1316WAT      O 4031   1.549   0.304   2.363 -0.0370 -0.2048  0.3732
 1316WAT     H1 4032   1.579   0.283   2.275  1.2750  0.1788  0.7070
 1316WAT     H2 4033   1.540   0.400   2.364 -0.5890 -0.2527  0.4960
 1317WAT      O 4034   2.342   0.477   3.039  0.0115  0.4521  0.2228
 1317WAT     H1 4035   2.398   0.525   2.978  0.0821  0.8292  0.5764
 1317WAT     H2 4036   2.390   0.396   3.056 -0.6162 -0.2547 -1.2144
 1318WAT      O 4037   0.079   0.016   1.798 -0.0125 -0.0067 -0.0335
 1318WAT     H1 4038  -0.001   0.030   1.848 -0.7061 -1.2851 -0.7013
 1318WAT     H2 4039   0.118  -0.062   1.837 -1.0207 -1.5566 -1.9312
 1319WAT      O 4040   3.239   3.639   3.408 -0.0464 -0.5902 -0.3876
 1319WAT     H1 4041   3.251   3.617   3.315 -3.1279 -2.7531 -0.4204
 1319WAT     H2 4042   3.249   3.555   3.453  0.0693  0.2042  1.1305
 1320WAT      O 4043   1.355   1.090   1.686 -0.6352  0.2337  0.1608
 1320WAT     H1 4044   1.441   1.133   1.678  0.5744 -0.8875  4.2918
 1320WAT     H2 4045   1.357   1.019   1.622  0.6561  1.4098 -1.1795
 1321WAT      O 4046   3.482   1.671   3.123  0.0948 -0.6672 -0.3124
 1321WAT     H1 4047   3.552   1.632   3.175  0.0168 -0.1861  0.1678
 1321WAT     H2 4048   3.526   1.712   3.049  0.1823 -1.6021 -0.7904
 1322WAT      O 4049   0.243   0.891   3.759 -0.4113 -0.5593 -0.0691
 1322WAT     H1 4050   0.296   0.949   3.814 -1.8573 -1.1728  2.0637
 1322WAT     H2 4051   0.225   0.943   3.681 -0.6401  1.4574  1.2420
 1323WAT      O 4052   1.722   2.076   3.429 -0.5190  0.2731 -0.0318
 1323WAT     H1 4053   1.816   2.057   3.429 -0.6651 -0.5130  0.6654
 1323WAT     H2 4054   1.715   2.161   3.386  0.4017 -0.1710 -1.1273
 1324WAT      O 4055   1.625   0.057   3.484 -0.3726 -0.6408 -0.0127
 1324WAT     H1 4056   1.547   0.009   3.454 -0.7503  1.0529 -1.9797
 1324WAT     H2 4057   1.697   0.016   3.436 -0.5886  0.1865 -1.0775
 1325WAT      O 4058   3.130   1.644   0.425  0.2770 -0.3810 -0.0051
 1325WAT     H1 4059   3.080   1.703   0.481 -0.1726 -1.3646  0.6567
 1325WAT     H2 4060   3.139   1.691   0.343  0.1056  0.6911  0.5681
 1326WAT      O 4061   1.061   0.890   0.971 -0.8598 -0.8203  0.0215
 1326WAT     H1 4062   1.083   0.803   0.937  1.7484 -0.5355  0.7429
 1326WAT     H2 4063   1.080   0.949   0.898  1.2585 -0.5431  0.7392
 1327WAT      O 4064   3.694   3.590   3.351 -0.0462 -0.6051 -0.1093
 1327WAT     H1 4065   3.664   3.679   3.332  0.4430 -0.7038 -1.4923
 1327WAT     H2 4066   3.751   3.568   3.277  0.2210 -1.8952  0.4524
 1328WAT      O 4067   3.092   1.204   3.500 -0.3809 -0.0166 -0.6082
 1328WAT     H1 4068   3.176   1.184   3.459  1.1326  1.0515  1.7356
 1328WAT     H2 4069   3.052   1.118   3.516  0.7787 -0.6096 -0.7749
 1329WAT      O 4070   0.176   1.375   2.589 -0.3033  0.1370 -0.2247
 1329WAT     H1 4071   0.082   1.384   2.601 -0.4841 -0.4445 -1.1147
 1329WAT     H2 4072   0.192   1.406   2.500  0.5665  1.5899  0.4085
 1330WAT      O 4073   1.730   1.383   3.042 -0.2924 -0.7192 -0.2578
 1330WAT     H1 4074   1.719   1.476   3.062 -1.2132 -0.8991  0.0980
 1330WAT     H2 4075   1.642   1.346   3.048  0.0725 -1.6327 -0.3415
 1331WAT      O 4076   0.353   1.604   2.396 -0.0995  0.1417 -0.4297
 1331WAT     H1 4077   0.276   1.546   2.391  0.7403 -1.1035  0.5438
 1331WAT     H2 4078   0.319   1.684   2.436 -1.1283  0.0704 -1.0963
 1332WAT      O 4079   2.469   1.063   2.328 -0.1026 -0.4772  0.1589
 1332WAT     H1 4080   2.538   1.103   2.381 -0.3151 -0.2881  0.2936
 1332WAT     H2 4081   2.488   0.969   2.331 -0.3527 -0.5148  0.9262
 1333WAT      O 4082   3.079   2.609   0.038 -0.3398  0.0045  0.5753
 1333WAT     H1 4083   3.102   2.650  -0.045  1.8804 -1.0096  0.5940
 1333WAT     H2 4084   3.013   2.543   0.016 -1.0721  0.9362 -0.0694
 1334WAT      O 4085   1.043   4.000   3.885  0.3420  0.3980  0.2824
 1334WAT     H1 4086   1.093   4.036   3.958  1.7193 -0.6646 -0.0768
 1334WAT     H2 4087   1.035   3.907   3.905  0.4315  0.1587 -0.7286
 1335WAT      O 4088   3.555   3.421   0.654  0.2780  0.0792 -0.2240
 1335WAT     H1 4089   3.544   3.364   0.731  1.4751 -0.5599 -0.4984
 1335WAT     H2 4090   3.557   3.361   0.580 -0.0855  0.6276 -0.6819
 1336WAT      O 4091   2.632   0.402   2.541 -0.2989 -0.2293 -0.0554
 1336WAT     H1 4092   2.548   0.420   2.584  0.0866 -1.4176  1.2743
 1336WAT     H2 4093   2.679   0.347   2.604  0.0242 -2.7000 -2.3063
 1337WAT      O 4094   1.153   1.107   3.956 -0.4585  0.5439  0.4072
 1337WAT     H1 4095   1.159   1.029   4.010 -1.9352  2.1178  3.0227
 1337WAT     H2 4096   1.067   1.100   3.913  0.1721 -0.0754 -0.8229
 1338WAT      O 4097   1.329   2.923   3.976 -0.1962  0.3513 -0.3331
 1338WAT     H1 4098   1.355   2.833   3.953  2.2131  1.8249 -4.5604
 1338WAT     H2 4099   1.234   2.924   3.961  0.0228 -1.0782 -2.2070
 1339WAT      O 4100   0.739   0.451   3.388 -0.2135 -0.2538  0.5478
 1339WAT     H1 4101   0.646   0.438   3.402 -0.6906  1.0928 -1.0556
 1339WAT     H2 4102   0.753   0.545   3.403  0.9937 -0.5280  1.2978
 1340WAT      O 4103   2.838   1.330   3.591 -0.1330 -0.1423 -0.6116
 1340WAT     H1 4104   2.905   1.395   3.568 -0.1282 -0.3508 -1.1827
 1340WAT     H2 4105   2.812   1.291   3.508 -0.0754 -0.9344 -0.2643
 1341WAT      O 4106   2.377   1.429   0.014 -0.0328 -0.6487 -0.0237
 1341WAT     H1 4107   2.401   1.522   0.010  0.3436 -0.6124  1.9862
 1341WAT     H2 4108   2.301   1.427   0.072 -1.1003 -1.4591 -1.3701
 1342WAT      O 4109   2.943   3.210   0.921 -0.2928 -0.8235 -0.5702
 1342WAT     H1 4110   3.037   3.197   0.909  0.5884  1.2334  2.7496
 1342WAT     H2 4111   2.922   3.164   1.002 -2.0389 -0.7650 -0.9524
 1343WAT      O 4112   0.226   3.615   1.963  0.7408 -0.3453  1.0754
 1343WAT     H1 4113   0.184   3.619   2.049  0.1651 -2.4436  0.9269
 1343WAT     H2 4114   0.155   3.597   1.902  1.3075  0.0003  0.3026
 1344WAT      O 4115   1.757   0.784   0.201  0.1198  0.0116 -0.1901
 1344WAT     H1 4116   1.742   0.873   0.233 -1.3798  0.5153 -2.0768
 1344WAT     H2 4117   1.824   0.795   0.133  0.4354 -0.4163  0.0500
 1345WAT      O 4118   1.662   2.712   2.820  0.4192  0.0505 -0.4056
 1345WAT     H1 4119   1.636   2.620   2.828  1.5828 -0.3494 -0.9366
 1345WAT     H2 4120   1.598   2.760   2.873  0.4917 -1.1844  0.8600
 1346WAT      O 4121   0.917   0.709   2.016 -0.1148 -0.3137  0.4944
 1346WAT     H1 4122   0.914   0.627   2.065  0.1474 -0.1397  0.8114
 1346WAT     H2 4123   0.847   0.702   1.951 -0.0282 -0.8264  0.4562
 1347WAT      O 4124   1.236   1.730   2.251 -0.0593  0.5140 -0.3406
 1347WAT     H1 4125   1.181   1.673   2.197  1.3821 -0.8617 -0.4371
 1347WAT     H2 4126   1.267   1.797   2.190 -1.3255  1.1320 -0.3514
 1348WAT      O 4127   0.824   3.796   2.977 -0.5117 -0.0116  0.4353
 1348WAT     H1 4128   0.908   3.791   2.931 -0.7755  0.6755 -0.1535
 1348WAT     H2 4129   0.766   3.737   2.928 -0.2172 -0.9855  1.2268
 1349WAT      O 4130   1.475   0.590   2.944  0.3216 -0.5590 -0.0166
 1349WAT     H1 4131   1.486   0.505   2.988  0.4224 -1.5497 -1.8678
 1349WAT     H2 4132   1.542   0.590   2.875 -0.2318  0.6713 -0.5742
 1350WAT      O 4133   0.621   1.839   2.028  0.3917 -0.2990  0.3070
 1350WAT     H1 4134   0.568   1.917   2.041 -0.0557 -0.5818  0.2079
 1350WAT     H2 4135   0.696   1.868   1.976 -0.1255 -0.0757 -0.3232
 1351WAT      O 4136   3.101   3.611   1.627  0.1226  0.2408 -0.0219
 1351WAT     H1 4137   3.014   3.644   1.605  0.5135 -0.3742 -2.8178
 1351WAT     H2 4138   3.113   3.635   1.719 -1.8611  2.7729 -0.3182
 1352WAT      O 4139   3.295   1.914   2.557  0.1251 -0.0697  0.6727
 1352WAT     H1 4140   3.378   1.962   2.555 -0.6678  1.4120  1.6599
 1352WAT     H2 4141   3.262   1.927   2.646 -1.9392  0.7349 -0.1459
 1353WAT      O 4142   1.821   0.106   3.693  0.3812  0.3288 -0.2182
 1353WAT     H1 4143   1.855   0.017   3.690  1.5293  0.7839 -1.3164
 1353WAT     H2 4144   1.740   0.102   3.642 -0.3990 -0.3839  1.0054
 1354WAT      O 4145   2.818   2.198   1.582  0.2167  0.0898 -0.1506
 1354WAT     H1 4146   2.853   2.180   1.669  0.7608 -2.4450 -0.8130
 1354WAT     H2 4147   2.790   2.289   1.586  1.6726  0.5232  2.1753
 1355WAT      O 4148   3.378   1.076   1.627  0.0294 -0.1871 -0.1765
 1355WAT     H1 4149   3.421   1.025   1.695  1.8570  1.4376 -0.0245
 1355WAT     H2 4150   3.326   1.141   1.674 -0.3711 -0.3867 -0.3427
 1356WAT      O 4151   2.570   3.168   1.050 -0.0917 -0.2075  0.6843
 1356WAT     H1 4152   2.600   3.253   1.083  1.6276 -0.7309  0.5864
 1356WAT     H2 4153   2.637   3.106   1.079 -0.0737 -1.1563 -1.2141
 1357WAT      O 4154   3.094   3.733   3.070  0.3549  0.7480  0.2425
 1357WAT     H1 4155   3.096   3.715   2.976 -0.2381  1.8693 -0.0060
 1357WAT     H2 4156   3.037   3.666   3.106 -2.3226  2.3370 -0.7401
 1358WAT      O 4157   3.388   2.991   2.051 -0.4230  0.0766  0.1798
 1358WAT     H1 4158   3.425   3.058   2.108 -1.1116  0.0144  0.7165
 1358WAT     H2 4159   3.356   3.039   1.975  0.2933  0.1885 -0.0579
 1359WAT      O 4160   3.250   3.743   2.315  0.1878 -0.7665  0.1871
 1359WAT     H1 4161   3.238   3.827   2.272  0.8109 -0.5690  0.3824
 1359WAT     H2 4162   3.175   3.690   2.288  0.6693 -0.7157 -1.2973
 1360WAT      O 4163   0.371   0.301   0.500  0.7204  0.6077  0.1126
 1360WAT     H1 4164   0.295   0.331   0.449  1.6314  0.3563 -1.4844
 1360WAT     H2 4165   0.336   0.231   0.555 -0.4156  1.2361  0.2221
 1361WAT      O 4166   2.129   3.341   0.800 -0.1249 -0.4952 -0.1293
 1361WAT     H1 4167   2.222   3.338   0.774  0.1420 -2.1116  0.8977
 1361WAT     H2 4168   2.126   3.298   0.885 -1.6505  0.7490  0.5008
 1362WAT      O 4169   2.207   2.224   3.241 -0.5535  0.1683  0.0005
 1362WAT     H1 4170   2.201   2.129   3.245  0.2867  0.0618 -0.8217
 1362WAT     H2 4171   2.219   2.251   3.332 -0.4867 -0.5388  0.2086
 1363WAT      O 4172   1.287   2.461   0.509 -0.2217 -0.0028 -0.5929
 1363WAT     H1 4173   1.278   2.456   0.414 -1.3132  0.5660 -0.5345
 1363WAT     H2 4174   1.237   2.386   0.542  0.5223 -0.4572 -0.4685
 1364WAT      O 4175   0.164   1.383   1.916 -0.2603 -0.2552 -0.1907
 1364WAT     H1 4176   0.098   1.451   1.924 -1.0299 -1.1485  1.9585
 1364WAT     H2 4177   0.133   1.327   1.845 -1.7207 -0.5121  0.6177
 1365WAT      O 4178   2.354   0.226   2.116  0.8311  0.4979  0.1504
 1365WAT     H1 4179   2.270   0.234   2.071  0.1854  2.4858  1.5653
 1365WAT     H2 4180   2.381   0.135   2.102 -0.7833  0.2461 -1.6318
 1366WAT      O 4181   2.605   3.679   0.747  0.1155 -0.0577 -0.3376
 1366WAT     H1 4182   2.546   3.751   0.769 -1.9092 -1.1329 -1.9413
 1366WAT     H2 4183   2.688   3.701   0.790 -1.3867  1.6000  1.8575
 1367WAT      O 4184   3.319   0.217   2.024  0.0846  0.0883 -0.0042
 1367WAT     H1 4185   3.344   0.269   1.947 -0.8431  0.7193  0.1063
 1367WAT     H2 4186   3.236   0.175   1.999  1.0320 -1.7438 -0.2626
 1368WAT      O 4187   1.713   3.116   3.169  0.2351 -0.1558 -0.4123
 1368WAT     H1 4188   1.703   3.025   3.140 -0.5859 -0.3392  0.3902
 1368WAT     H2 4189   1.783   3.151   3.114  3.6071 -2.4407  2.0069
 1369WAT      O 4190   0.115   3.115   1.576  0.1411  0.2256 -0.0197
 1369WAT     H1 4191   0.154   3.190   1.532  1.4480  0.0826  0.8226
 1369WAT     H2 4192   0.150   3.039   1.529  0.7018  0.0989  0.5956
 1370WAT      O 4193   3.091   1.547   3.801  0.2260 -0.1801  0.1883
 1370WAT     H1 4194   3.054   1.635   3.809 -0.5684 -0.5413  0.5925
 1370WAT     H2 4195   3.060   1.516   3.716  0.6846  0.0007 -0.0519
 1371WAT      O 4196   3.318   2.748   1.980  0.0406 -0.5867 -0.3899
 1371WAT     H1 4197   3.334   2.830   2.027  0.1746 -1.2912  0.8653
 1371WAT     H2 4198   3.372   2.684   2.026  0.5095 -1.2502 -1.8127
 1372WAT      O 4199   2.122   2.750   0.364 -0.5719 -0.6431  0.0258
 1372WAT     H1 4200   2.153   2.838   0.340  0.1611 -0.5658  1.1655
 1372WAT     H2 4201   2.082   2.762   0.450 -0.1531 -1.4823  0.3460
 1373WAT      O 4202   0.688   0.929   0.949  0.0077 -0.0336 -0.1293
 1373WAT     H1 4203   0.667   1.003   0.892 -1.5786 -0.0432  0.3931
 1373WAT     H2 4204   0.710   0.857   0.890  0.2492  0.4833 -0.6691
 1374WAT      O 4205   2.815   1.537   0.905  0.0145  0.0426  0.1721
 1374WAT     H1 4206   2.822   1.443   0.885  1.2931 -0.1824  1.4999
 1374WAT     H2 4207   2.738   1.543   0.962  0.7752 -0.4447  1.2856
 1375WAT      O 4208   1.313   2.164   1.521 -0.2972 -0.4225 -0.3501
 1375WAT     H1 4209   1.307   2.078   1.561 -2.3132  0.1850  0.8000
 1375WAT     H2 4210   1.319   2.225   1.594  0.8873  0.4687 -1.1397
 1376WAT      O 4211   3.602   2.742   3.591  0.3699 -0.4322 -0.0842
 1376WAT     H1 4212   3.623   2.691   3.513  2.0825  0.7088 -0.4345
 1376WAT     H2 4213   3.685   2.785   3.614 -0.4950  0.5130  1.4156
 1377WAT      O 4214   1.965   4.017   2.481 -0.2385  0.2284  0.1237
 1377WAT     H1 4215   1.972   4.053   2.569  1.6207  0.2513 -0.0013
 1377WAT     H2 4216   2.004   3.930   2.487  0.1591  0.3414 -0.7399
 1378WAT      O 4217   0.432   1.257   1.472  0.5084  0.0068  0.1434
 1378WAT     H1 4218   0.424   1.332   1.531  0.6812 -0.0159  0.1943
 1378WAT     H2 4219   0.417   1.294   1.385  1.7211  0.3038  0.0532
 1379WAT      O 4220   1.703   1.383   3.496  0.0937  0.1702 -0.1394
 1379WAT     H1 4221   1.755   1.407   3.572 -0.0977  1.1545 -0.3022
 1379WAT     H2 4222   1.614   1.413   3.517 -0.0190  0.1927 -0.6255
 1380WAT      O 4223   0.333   2.114   3.257 -0.0022  0.5484  0.0127
 1380WAT     H1 4224   0.416   2.125   3.303  0.2204 -1.2450  0.1108
 1380WAT     H2 4225   0.273   2.173   3.302  0.9357  1.0059  0.6933
 1381WAT      O 4226   2.057   1.784   1.469  0.5253  0.0993  0.2497
 1381WAT     H1 4227   2.152   1.781   1.458  0.4613  1.8391 -1.2295
 1381WAT     H2 4228   2.023   1.757   1.384 -0.4208 -2.5988  1.3695
 1382WAT      O 4229   3.344   3.335   1.282 -0.5602 -0.3013 -0.2763
 1382WAT     H1 4230   3.406   3.362   1.350 -2.8593  1.0850  1.3891
 1382WAT     H2 4231   3.346   3.239   1.285 -0.8855 -0.2919  2.1060
 1383WAT      O 4232   2.646   0.036   2.663  0.0733  0.0955 -0.1053
 1383WAT     H1 4233   2.659   0.096   2.590 -0.2936 -0.6945 -0.8319
 1383WAT     H2 4234   2.730  -0.010   2.672 -0.5836 -1.4822 -1.5843
 1384WAT      O 4235   3.349   2.535   0.127  0.0182  0.5183 -0.3649
 1384WAT     H1 4236   3.260   2.569   0.117 -0.6581 -0.5178  1.5695
 1384WAT     H2 4237   3.394   2.600   0.181 -0.6708 -0.5863  1.6290
 1385WAT      O 4238   1.263   0.487   2.729  0.0256 -0.1081 -0.2014
 1385WAT     H1 4239   1.351   0.458   2.706  0.3311  0.9200 -0.4006
 1385WAT     H2 4240   1.208   0.456   2.657  0.5987  1.1141 -1.2032
 1386WAT      O 4241   0.236   3.833   0.545  0.1651  0.1675  0.3638
 1386WAT     H1 4242   0.210   3.741   0.552 -0.3126  0.3607  1.3694
 1386WAT     H2 4243   0.158   3.882   0.571  0.7126  0.8317  0.7925
 1387WAT      O 4244   0.277   0.672   1.654 -0.4450  0.8169 -0.1659
 1387WAT     H1 4245   0.359   0.631   1.625  0.2535 -0.8856  3.5373
 1387WAT     H2 4246   0.305   0.749   1.704 -1.1992  1.0271 -0.0537
 1388WAT      O 4247   3.582   2.938   0.815 -0.0644 -0.6750  0.3758
 1388WAT     H1 4248   3.612   2.849   0.833 -0.4258 -0.6317  1.2509
 1388WAT     H2 4249   3.523   2.928   0.741  0.0859 -1.1259  0.3077
 1389WAT      O 4250   2.976   1.017   0.348  0.2598  0.0902 -0.5881
 1389WAT     H1 4251   3.068   1.036   0.368  0.4688 -1.0186 -0.3869
 1389WAT     H2 4252   2.943   1.097   0.307  1.0188  0.8749  0.2866
 1390WAT      O 4253   0.012   2.758   2.957 -0.4649  0.6067  0.4404
 1390WAT     H1 4254   0.092   2.777   3.005  0.4331 -0.1058 -0.7045
 1390WAT     H2 4255  -0.003   2.665   2.970  0.6651  0.0433 -1.8300
 1391WAT      O 4256   0.684   1.805   2.376 -0.0281 -0.4379 -0.0586
 1391WAT     H1 4257   0.657   1.818   2.467  0.5910 -0.8370  0.1898
 1391WAT     H2 4258   0.648   1.719   2.352 -1.3397  0.2414 -0.6421
 1392WAT      O 4259   0.497   3.067   1.695 -0.0935  0.0162  0.3596
 1392WAT     H1 4260   0.581   3.035   1.663 -0.6266 -0.2078 -0.9026
 1392WAT     H2 4261   0.433   3.027   1.636 -1.2143 -1.0028  2.2072
 1393WAT      O 4262   0.869   3.896   2.079 -0.1456 -0.3157  0.5251
 1393WAT     H1 4263   0.964   3.907   2.084 -0.0630 -0.4871 -0.3984
 1393WAT     H2 4264   0.844   3.944   2.000 -0.7930 -0.4675  0.6366
 1394WAT      O 4265   1.992   2.050   3.498 -0.1309 -0.5400 -0.0317
 1394WAT     H1 4266   2.020   1.975   3.550  1.0446 -1.0551 -1.3154
 1394WAT     H2 4267   2.068   2.108   3.497 -1.0812  0.7845  1.0739
 1395WAT      O 4268   2.986   0.213   1.564  0.1421 -0.6087  0.1464
 1395WAT     H1 4269   2.994   0.307   1.578 -0.7827 -0.6794  1.3016
 1395WAT     H2 4270   2.911   0.203   1.505 -0.3844 -0.6491  0.8043
 1396WAT      O 4271   2.597   0.226   0.325  0.4094  0.3083  0.2180
 1396WAT     H1 4272   2.519   0.172   0.336  0.1061  0.6265 -0.3110
 1396WAT     H2 4273   2.581   0.303   0.379 -0.6967  1.4645 -1.6246
 1397WAT      O 4274   1.185   3.383   2.377  0.2391 -0.3530 -0.3619
 1397WAT     H1 4275   1.270   3.387   2.332 -0.1317 -1.5427 -1.2295
 1397WAT     H2 4276   1.197   3.318   2.446  0.2913  0.1781  0.1412
 1398WAT      O 4277   2.137   2.504   0.562 -0.1339  0.1165 -1.0646
 1398WAT     H1 4278   2.104   2.591   0.587 -0.9577 -0.4963  0.0493
 1398WAT     H2 4279   2.064   2.445   0.579  0.9411 -1.0401 -0.2633
 1399WAT      O 4280   0.874   1.026   1.151  0.0702 -0.0112  0.0820
 1399WAT     H1 4281   0.879   0.986   1.064  0.9119 -0.2009  0.2117
 1399WAT     H2 4282   0.861   1.119   1.134 -0.4915 -0.1456 -0.2362
 1400WAT      O 4283   3.312   2.698   2.635 -0.1296 -0.1733  0.3156
 1400WAT     H1 4284   3.382   2.762   2.645  0.9356 -1.4475  1.3301
 1400WAT     H2 4285   3.295   2.696   2.541  1.0603  0.2988  0.0747
 1401WAT      O 4286   2.933   3.974   3.956 -0.4268  0.4417  0.1266
 1401WAT     H1 4287   2.933   3.970   3.860 -1.0938 -0.1692  0.1481
 1401WAT     H2 4288   2.864   4.037   3.978  1.2169  2.3480  0.1713
 1402WAT      O 4289   1.014   2.756   3.078  0.1415 -0.0387 -0.1742
 1402WAT     H1 4290   1.012   2.708   2.996 -2.7996 -0.5475  0.0947
 1402WAT     H2 4291   0.947   2.823   3.069  2.3166  2.4060  0.4740
 1403WAT      O 4292   2.543   0.024   0.632  0.3387  0.0806  0.1792
 1403WAT     H1 4293   2.574  -0.064   0.607 -0.5127 -0.5200  1.1448
 1403WAT     H2 4294   2.620   0.066   0.670  0.4562 -0.7307  0.8843
 1404WAT      O 4295   0.656   2.465   0.244 -0.0945  0.0835  0.5701
 1404WAT     H1 4296   0.708   2.546   0.244 -1.5379  1.0692  0.4570
 1404WAT     H2 4297   0.702   2.406   0.304  2.1578  0.1764 -0.9707
 1405WAT      O 4298   2.685   0.481   2.078 -0.2538 -0.3350 -0.0738
 1405WAT     H1 4299   2.745   0.430   2.132 -0.0832  0.2375  0.2814
 1405WAT     H2 4300   2.693   0.442   1.990  2.1284  0.9788 -0.5180
 1406WAT      O 4301   3.114   3.633   2.799 -0.0652 -0.1975  0.3351
 1406WAT     H1 4302   3.043   3.571   2.786  0.2465 -0.8106  1.4168
 1406WAT     H2 4303   3.193   3.585   2.775  0.1586 -0.1416  0.9559
 1407WAT      O 4304   3.113   1.387   3.167  0.7529 -0.7016 -0.5659
 1407WAT     H1 4305   3.138   1.312   3.113  1.9028 -1.9125  1.5021
 1407WAT     H2 4306   3.195   1.417   3.206  0.1214  0.8335 -0.3597
 1408WAT      O 4307   1.409   3.903   1.482  0.4635  0.9150  0.0627
 1408WAT     H1 4308   1.355   3.871   1.410  0.6124  1.7347 -0.4289
 1408WAT     H2 4309   1.363   3.982   1.512 -0.6602 -0.4511  2.1617
 1409WAT      O 4310   3.238   3.259   1.961  0.1432  0.0342 -0.1176
 1409WAT     H1 4311   3.267   3.303   2.041 -1.5439 -0.1533  0.6398
 1409WAT     H2 4312   3.246   3.326   1.894 -1.7064  1.3431  0.8860
 1410WAT      O 4313   1.435   3.335   0.874 -0.2902 -0.8545  0.2996
 1410WAT     H1 4314   1.423   3.373   0.787  0.4666  1.5083  1.1487
 1410WAT     H2 4315   1.519   3.289   0.868  0.8717  1.1444  0.3054
 1411WAT      O 4316   2.361   3.740   1.440 -0.4827  0.0665 -0.1433
 1411WAT     H1 4317   2.422   3.809   1.414 -0.6971  0.6268  0.7723
 1411WAT     H2 4318   2.382   3.723   1.532 -0.1677 -1.3814 -0.4694
 1412WAT      O 4319   3.115   1.117   0.080 -0.6437 -0.4839 -0.6651
 1412WAT     H1 4320   3.116   1.212   0.087 -0.1518 -0.4373 -1.2086
 1412WAT     H2 4321   3.135   1.100  -0.013  0.6615 -1.1301 -0.2949
 1413WAT      O 4322   1.829   2.916   1.958  0.2433 -0.3547  0.1257
 1413WAT     H1 4323   1.901   2.976   1.937  1.0642 -1.1776  0.4894
 1413WAT     H2 4324   1.755   2.947   1.906  0.5818  1.0898  0.4562
 1414WAT      O 4325   0.359   0.662   0.450 -0.1289  0.3087 -0.1599
 1414WAT     H1 4326   0.386   0.753   0.443  0.5341  0.0121 -1.9953
 1414WAT     H2 4327   0.441   0.613   0.461 -0.5232 -0.0437  1.4937
 1415WAT      O 4328   1.504   2.021   3.260 -0.1857 -0.1913  0.5089
 1415WAT     H1 4329   1.481   2.093   3.318 -0.5182 -0.8968  1.2832
 1415WAT     H2 4330   1.579   1.979   3.302 -0.5313 -0.8074  0.5193
 1416WAT      O 4331   1.352   1.605   1.994 -0.3932  1.0606 -0.4060
 1416WAT     H1 4332   1.325   1.531   2.048 -0.8677  0.9213 -0.8277
 1416WAT     H2 4333   1.383   1.566   1.913 -0.6684  1.3230 -0.6417
 1417WAT      O 4334   3.682   1.655   3.532  0.5079 -0.0395  0.1712
 1417WAT     H1 4335   3.690   1.742   3.492  0.8150 -0.2678 -0.2743
 1417WAT     H2 4336   3.662   1.597   3.458 -1.2817 -0.1249  0.6635
 1418WAT      O 4337   2.817   0.069   3.217 -0.6650  0.5327 -0.2863
 1418WAT     H1 4338   2.779   0.028   3.139 -0.1148 -1.5608  0.4767
 1418WAT     H2 4339   2.899   0.021   3.232 -0.5418  1.1791  1.3378
 1419WAT      O 4340   2.971   1.886   2.459 -0.0980 -0.2513  0.0810
 1419WAT     H1 4341   2.954   1.793   2.445 -1.9367 -0.0142  0.5437
 1419WAT     H2 4342   3.038   1.908   2.394  0.2172 -1.8376 -0.1626
 1420WAT      O 4343   1.372   1.120   3.773 -0.1510 -0.5030  0.3475
 1420WAT     H1 4344   1.329   1.149   3.854 -1.4338 -0.4681 -0.3074
 1420WAT     H2 4345   1.400   1.201   3.731 -0.4364 -0.4416  0.2680
 1421WAT      O 4346   1.492   2.844   3.009  0.3920  0.1801 -0.1517
 1421WAT     H1 4347   1.419   2.803   3.055  0.8723  0.0381  0.5028
 1421WAT     H2 4348   1.462   2.933   2.990  0.2088  0.2619  0.4983
 1422WAT      O 4349   3.618   2.373   3.476  0.8590 -0.7080 -0.7646
 1422WAT     H1 4350   3.653   2.454   3.438 -1.0041  0.5235  0.0095
 1422WAT     H2 4351   3.647   2.374   3.567 -0.8802  0.2155 -0.1742
 1423WAT      O 4352   3.690   3.824   2.390 -0.7760 -0.3041  0.5780
 1423WAT     H1 4353   3.643   3.746   2.417 -0.8771  0.0622  1.4988
 1423WAT     H2 4354   3.699   3.876   2.470  0.9504 -0.2316  0.3827
 1424WAT      O 4355   1.190   3.735   0.090 -0.5212 -0.5730 -0.1086
 1424WAT     H1 4356   1.119   3.710   0.031 -0.3512 -1.1950 -0.0565
 1424WAT     H2 4357   1.267   3.741   0.034 -0.6939  0.5511 -0.2449
 1425WAT      O 4358   1.112   0.965   0.557 -0.2206  0.7444 -0.2576
 1425WAT     H1 4359   1.147   0.941   0.643  0.1192 -1.3513 -0.9187
 1425WAT     H2 4360   1.091   1.058   0.564 -0.0875  0.6465  2.0497
 1426WAT      O 4361   0.202   1.914   1.650  0.2104 -0.1128  0.1769
 1426WAT     H1 4362   0.292   1.895   1.674  0.1015 -1.0023 -0.0776
 1426WAT     H2 4363   0.200   2.008   1.636  1.0751 -0.0722  0.2876
 1427WAT      O 4364   2.558   0.872   1.344 -0.4430 -0.4373 -0.1839
 1427WAT     H1 4365   2.624   0.840   1.282 -1.6068 -1.8632 -0.7383
 1427WAT     H2 4366   2.608   0.898   1.421  0.9914  0.8780 -1.4868
 1428WAT      O 4367   0.112   3.089   2.796  0.6390  0.0994 -0.1942
 1428WAT     H1 4368   0.176   3.052   2.735 -0.9672 -0.3838 -1.6745
 1428WAT     H2 4369   0.044   3.022   2.803 -0.3772  1.1366  0.2393
 1429WAT      O 4370   3.533   2.375   2.281 -0.5581  0.5690  0.0751
 1429WAT     H1 4371   3.565   2.298   2.235 -2.7040  0.4362 -1.3375
 1429WAT     H2 4372   3.468   2.341   2.343 -0.3751  1.1021  0.5684
 1430WAT      O 4373   0.365   1.913   0.665  0.0684 -0.1979 -0.1353
 1430WAT     H1 4374   0.321   1.997   0.670 -0.5467 -0.5592  1.1069
 1430WAT     H2 4375   0.294   1.849   0.662  0.4851 -0.7450  0.9275
 1431WAT      O 4376   1.262   0.491   0.341  0.2371  0.6430  0.0699
 1431WAT     H1 4377   1.355   0.484   0.362 -0.2438 -0.4007  2.1669
 1431WAT     H2 4378   1.237   0.578   0.373  0.6115  1.1911 -1.1004
 1432WAT      O 4379   2.090   2.313   2.090 -0.1123  0.6968 -0.6544
 1432WAT     H1 4380   2.131   2.246   2.145 -0.2879  0.4858 -0.7829
 1432WAT     H2 4381   2.017   2.268   2.048  0.3549  0.7152 -1.4914
 1433WAT      O 4382   2.315   0.981   3.303 -0.5196 -0.0275  0.0149
 1433WAT     H1 4383   2.339   0.903   3.352  1.5680 -0.8064 -2.0336
 1433WAT     H2 4384   2.242   0.953   3.248  1.0680 -1.0926 -1.7075
 1434WAT      O 4385   1.015   1.376   0.025  0.0046 -0.2800 -0.3415
 1434WAT     H1 4386   0.938   1.374   0.081  0.1521  0.0878 -0.1188
 1434WAT     H2 4387   1.081   1.325   0.074  0.4868  0.9787  0.3683
 1435WAT      O 4388   2.059   1.293   1.814  0.1635  0.2581  0.2262
 1435WAT     H1 4389   2.066   1.288   1.718 -1.0134  0.5246  0.1063
 1435WAT     H2 4390   2.092   1.380   1.836  1.9361 -0.3915  0.2419
 1436WAT      O 4391   0.882   0.588   1.544 -0.8135  0.2750 -0.0771
 1436WAT     H1 4392   0.946   0.540   1.491 -1.6149  0.6564 -1.4388
 1436WAT     H2 4393   0.935   0.643   1.602  0.0999 -0.9818  0.3273
 1437WAT      O 4394   0.631   1.063   3.447 -0.3462  0.0581 -0.2802
 1437WAT     H1 4395   0.598   0.995   3.505 -1.6905  1.1188  0.2435
 1437WAT     H2 4396   0.726   1.050   3.446 -0.4732 -1.0824  0.7251
 1438WAT      O 4397   1.016   0.903   3.777  0.6736  0.0913  0.3598
 1438WAT     H1 4398   1.060   0.825   3.743 -1.2648  0.1856 -2.7810
 1438WAT     H2 4399   1.048   0.975   3.722  0.6982  1.1321  1.6805
 1439WAT      O 4400   2.025   3.803   0.197 -0.5352 -0.3171 -0.3475
 1439WAT     H1 4401   1.948   3.764   0.155 -0.1309 -0.9615 -0.4997
 1439WAT     H2 4402   2.066   3.854   0.128 -1.6278  1.2770  0.1080
 1440WAT      O 4403   3.634   2.183   2.109  0.4373 -0.3947 -0.1459
 1440WAT     H1 4404   3.612   2.131   2.031  1.3051 -0.0000 -0.6671
 1440WAT     H2 4405   3.716   2.227   2.086  0.3303  0.2878  0.7267
 1441WAT      O 4406   2.512   1.083   2.690 -0.9887  0.1854  0.0278
 1441WAT     H1 4407   2.509   1.173   2.657 -1.2674  0.3596  0.5151
 1441WAT     H2 4408   2.602   1.055   2.674 -0.9475  0.4869 -0.2920
 1442WAT      O 4409   2.016   3.379   2.692 -0.0841 -0.4249  0.0718
 1442WAT     H1 4410   1.990   3.450   2.750  1.0597 -0.9126  1.2337
 1442WAT     H2 4411   1.940   3.322   2.687 -0.9109  0.7077 -0.6295
 1443WAT      O 4412   2.944   0.114   2.094  0.1071  0.2351  0.1787
 1443WAT     H1 4413   3.003   0.157   2.033  1.0714 -2.4026 -0.9058
 1443WAT     H2 4414   2.857   0.124   2.055  0.4313  0.4168 -0.5143
 1444WAT      O 4415   2.661   1.815   1.883 -0.3473  0.3439 -0.1744
 1444WAT     H1 4416   2.664   1.910   1.878 -1.0150  0.3229 -1.7457
 1444WAT     H2 4417   2.568   1.793   1.876 -0.3475 -0.4051  1.6161
 1445WAT      O 4418   3.086   0.404   0.772  0.3964  0.3542  0.0530
 1445WAT     H1 4419   3.056   0.491   0.799 -0.4260  0.3043 -0.6655
 1445WAT     H2 4420   3.051   0.345   0.839  0.4746  0.5127  0.2344
 1446WAT      O 4421   1.569   4.089   1.731  0.0894 -0.0940  0.1435
 1446WAT     H1 4422   1.522   4.059   1.809 -0.8311 -2.8329 -1.3210
 1446WAT     H2 4423   1.501   4.132   1.678  0.4357  0.6535  0.2986
 1447WAT      O 4424   1.569   1.164   2.336 -0.5857  0.4492 -0.3388
 1447WAT     H1 4425   1.532   1.240   2.380 -0.7055 -0.0472  0.4378
 1447WAT     H2 4426   1.531   1.089   2.382 -0.0541 -0.0758 -0.7444
 1448WAT      O 4427   2.505   3.052   2.956 -0.3877 -0.0180 -0.1578
 1448WAT     H1 4428   2.421   3.084   2.990 -0.8941 -0.7553 -0.7216
 1448WAT     H2 4429   2.489   3.032   2.864  0.8962  1.6303 -0.7965
 1449WAT      O 4430   3.213   3.387   3.493 -0.1389 -0.2606  0.3810
 1449WAT     H1 4431   3.168   3.304   3.506  0.1371 -0.1266  2.7748
 1449WAT     H2 4432   3.304   3.369   3.517 -0.0051  0.6156  0.5718
 1450WAT      O 4433   2.248   2.518   3.399 -0.2261  0.2979 -1.1706
 1450WAT     H1 4434   2.341   2.522   3.376 -0.4237 -0.1536 -2.0862
 1450WAT     H2 4435   2.247   2.498   3.492  0.6071 -1.3907 -1.4840
 1451WAT      O 4436   1.211   0.405   3.183  0.3018 -0.3368 -0.0754
 1451WAT     H1 4437   1.161   0.402   3.102  0.0912  1.0416 -0.0298
 1451WAT     H2 4438   1.302   0.402   3.156  0.2213 -1.9100 -0.2193
 1452WAT      O 4439   3.420   1.004   1.998  0.0514 -0.2941 -0.3575
 1452WAT     H1 4440   3.510   1.024   1.974  0.5602 -0.1873  1.5045
 1452WAT     H2 4441   3.423   0.915   2.033 -0.7697 -0.6721 -1.1818
 1453WAT      O 4442   0.920   1.753   2.249 -0.4110 -0.0998  0.0710
 1453WAT     H1 4443   0.973   1.827   2.218 -1.6275  1.1963  0.9673
 1453WAT     H2 4444   0.839   1.793   2.281 -1.2905 -1.8756  0.1867
 1454WAT      O 4445   2.424   0.430   3.969 -0.5899 -0.2306 -0.7815
 1454WAT     H1 4446   2.381   0.413   4.053  0.5722 -1.0644 -0.3279
 1454WAT     H2 4447   2.516   0.409   3.985  0.5142  3.6890 -0.9991
 1455WAT      O 4448   3.377   2.235   2.487 -0.3812  0.0313  0.6539
 1455WAT     H1 4449   3.285   2.244   2.462 -0.3975 -1.5098  0.0672
 1455WAT     H2 4450   3.378   2.254   2.581 -1.6164 -1.6258  1.0475
 1456WAT      O 4451   1.209   0.420   1.489 -0.0275  0.3583  0.1733
 1456WAT     H1 4452   1.259   0.434   1.570  0.5380  0.5837 -0.2051
 1456WAT     H2 4453   1.198   0.507   1.453 -0.2160  0.2501 -0.0306
 1457WAT      O 4454   2.214   2.963   2.115  0.1548 -0.0553 -0.1489
 1457WAT     H1 4455   2.256   2.923   2.190 -2.3768 -1.1069  0.8368
 1457WAT     H2 4456   2.160   3.033   2.151 -0.8301 -0.3464 -0.9715
 1458WAT      O 4457   2.400   2.072   2.113  0.4612 -0.5127  0.0543
 1458WAT     H1 4458   2.338   2.038   2.178  1.8598 -0.7638  1.2922
 1458WAT     H2 4459   2.480   2.023   2.128  1.5895  1.1799 -0.1875
 1459WAT      O 4460   0.627   4.002   0.352  0.0131 -0.0364 -0.3112
 1459WAT     H1 4461   0.534   3.981   0.350  0.1541 -0.6650 -0.4708
 1459WAT     H2 4462   0.630   4.097   0.343 -0.6563  0.1014  0.6754
 1460WAT      O 4463   2.243   0.598   1.140 -0.1343  0.0018  0.4182
 1460WAT     H1 4464   2.289   0.581   1.222  1.8121 -0.5650 -0.7255
 1460WAT     H2 4465   2.170   0.536   1.140  0.9443 -1.3166  0.8893
 1461WAT      O 4466   3.502   3.164   2.213  0.6472  0.0393  0.0313
 1461WAT     H1 4467   3.564   3.232   2.240  0.7917 -0.5517  1.2814
 1461WAT     H2 4468   3.421   3.185   2.260  0.9607 -1.1287  1.1541
 1462WAT      O 4469   0.955   3.399   2.016 -0.2044 -0.1024 -0.0860
 1462WAT     H1 4470   0.871   3.390   1.970  0.1566  0.7017 -0.9255
 1462WAT     H2 4471   0.942   3.472   2.076 -0.0004  0.2484 -0.4661
 1463WAT      O 4472   3.646   1.543   1.832  0.2480 -0.0206 -0.1453
 1463WAT     H1 4473   3.568   1.533   1.886  0.6178 -0.8504  0.2636
 1463WAT     H2 4474   3.672   1.634   1.843  0.1234 -0.0930  0.8092
 1464WAT      O 4475   3.356   3.913   2.559  0.0490  0.0963  0.1602
 1464WAT     H1 4476   3.341   3.875   2.472  0.1132  4.0032 -1.7693
 1464WAT     H2 4477   3.279   3.887   2.610 -0.0046 -2.2875 -0.9739
 1465WAT      O 4478   1.087   2.670   1.957 -0.9149 -0.2163  0.5400
 1465WAT     H1 4479   1.178   2.659   1.929 -1.4762  0.9673 -2.0870
 1465WAT     H2 4480   1.050   2.582   1.952 -0.8237 -0.1782 -2.2240
 1466WAT      O 4481   0.151   1.630   3.047 -0.6603  0.1084 -0.9577
 1466WAT     H1 4482   0.164   1.717   3.085 -0.5296  0.1665 -1.1372
 1466WAT     H2 4483   0.143   1.572   3.123 -0.5403  0.2455 -0.8402
 1467WAT      O 4484   2.430   2.524   3.033 -0.6886  0.4110 -0.2268
 1467WAT     H1 4485   2.461   2.533   2.943 -2.6643 -0.7669 -1.0767
 1467WAT     H2 4486   2.507   2.547   3.087  0.7590  0.3868 -2.1746
 1468WAT      O 4487   2.729   3.705   3.786 -0.2464 -0.4319 -0.3668
 1468WAT     H1 4488   2.805   3.649   3.768  0.7236  1.0293 -1.0485
 1468WAT     H2 4489   2.751   3.789   3.744 -0.9659  0.9780  1.8744
 1469WAT      O 4490   1.150   1.718   1.838  0.0714  0.3706 -0.5142
 1469WAT     H1 4491   1.201   1.696   1.760 -0.2708  1.9759 -1.2222
 1469WAT     H2 4492   1.201   1.682   1.911  0.6202 -0.7693 -1.4251
 1470WAT      O 4493   0.771   2.931   3.317 -0.0094  0.5772 -0.1625
 1470WAT     H1 4494   0.815   2.919   3.233  0.9210 -1.3116  0.5326
 1470WAT     H2 4495   0.682   2.898   3.303  0.0634  0.5143 -0.4674
 1471WAT      O 4496   1.446   3.734   2.679  0.4968  0.6490 -0.1894
 1471WAT     H1 4497   1.462   3.769   2.767  1.3931  1.3649 -0.6273
 1471WAT     H2 4498   1.463   3.641   2.686  2.9926  1.0524 -0.1496
 1472WAT      O 4499   2.548   3.780   0.317 -0.5805  0.0605 -0.1119
 1472WAT     H1 4500   2.569   3.811   0.229 -0.0162  0.5901  0.1982
 1472WAT     H2 4501   2.462   3.739   0.308 -0.3112 -0.3329 -1.0064
 1473WAT      O 4502   0.275   1.527   3.336 -0.0650  0.0936 -0.2045
 1473WAT     H1 4503   0.323   1.451   3.368 -0.9440 -0.7331 -0.8209
 1473WAT     H2 4504   0.316   1.547   3.252  0.4848  0.6145  0.1793
 1474WAT      O 4505   1.240   1.396   2.215 -0.0445  0.2818 -0.3301
 1474WAT     H1 4506   1.153   1.402   2.254 -0.5697  0.4442 -1.4919
 1474WAT     H2 4507   1.239   1.313   2.167 -0.1551  1.0782 -1.7360
 1475WAT      O 4508   3.003   2.886   1.626 -0.0064  0.3277 -0.1445
 1475WAT     H1 4509   2.985   2.938   1.705 -1.6733 -1.3747  0.6818
 1475WAT     H2 4510   2.916   2.860   1.595  0.6096  0.7831 -2.4950
 1476WAT      O 4511   3.504   0.820   2.915 -0.1014 -0.0061  0.2118
 1476WAT     H1 4512   3.569   0.751   2.905 -1.4225 -1.7230  2.6496
 1476WAT     H2 4513   3.543   0.882   2.977  0.0965  0.1946 -0.1065
 1477WAT      O 4514   2.359   0.451   2.707  0.3508  0.0247  0.6336
 1477WAT     H1 4515   2.276   0.489   2.680  0.2683 -1.1881 -0.9533
 1477WAT     H2 4516   2.399   0.518   2.763 -0.8457  1.3989 -0.0992
 1478WAT      O 4517   3.405   1.208   3.887 -0.0172 -0.3434  0.1180
 1478WAT     H1 4518   3.353   1.157   3.824 -0.7629 -0.6474  0.9530
 1478WAT     H2 4519   3.343   1.271   3.923  0.0370 -1.0577  1.5172
 1479WAT      O 4520   2.207   3.985   2.833 -0.0881 -0.0281 -0.0654
 1479WAT     H1 4521   2.159   4.025   2.906  0.5609 -0.6895  0.7385
 1479WAT     H2 4522   2.250   3.909   2.871  0.2179 -0.4194 -1.1622
 1480WAT      O 4523   1.895   1.262   1.325 -0.1654 -0.1404 -0.4407
 1480WAT     H1 4524   1.861   1.173   1.339  0.7318 -0.3211  0.7741
 1480WAT     H2 4525   1.820   1.319   1.344  0.0294 -0.5417  1.8558
 1481WAT      O 4526   0.202   0.015   1.325  0.4406  0.4349 -0.0800
 1481WAT     H1 4527   0.134  -0.035   1.371 -0.5805  1.3947 -0.4788
 1481WAT     H2 4528   0.280   0.006   1.379  0.2956 -1.5281 -0.1204
 1482WAT      O 4529   3.577   0.481   0.410  0.2762 -0.2737 -0.0895
 1482WAT     H1 4530   3.519   0.540   0.459 -0.8866 -0.5005 -1.1339
 1482WAT     H2 4531   3.626   0.540   0.352 -0.1305 -0.2269 -0.3917
 1483WAT      O 4532   2.891   3.180   2.265  0.1246 -0.9413 -0.6392
 1483WAT     H1 4533   2.809   3.229   2.259  0.5328 -0.3536 -1.7236
 1483WAT     H2 4534   2.935   3.216   2.342  0.0649 -0.1278 -0.9706
 1484WAT      O 4535   2.547   1.225   3.149  0.6928 -0.4630 -0.2884
 1484WAT     H1 4536   2.566   1.178   3.067  1.0664 -0.8758  0.0285
 1484WAT     H2 4537   2.633   1.240   3.188  0.4277 -1.9078  0.9223
 1485WAT      O 4538   2.473   0.896   0.651  0.0413  0.4063  0.1208
 1485WAT     H1 4539   2.436   0.970   0.698  0.2202  0.2722  0.4816
 1485WAT     H2 4540   2.561   0.887   0.687  0.8066  1.3403 -1.4156
 1486WAT      O 4541   3.686   2.169   2.732 -0.1276  0.2379  0.4602
 1486WAT     H1 4542   3.595   2.194   2.751 -0.6035  0.0062 -1.3044
 1486WAT     H2 4543   3.704   2.211   2.648  1.3191  0.0240  0.6475
 1487WAT      O 4544   2.626   1.048   2.939  0.0750  0.1618  0.7491
 1487WAT     H1 4545   2.571   1.076   2.865  0.3792 -2.4789 -0.6247
 1487WAT     H2 4546   2.710   1.027   2.899  0.8337  0.3682  2.1808
 1488WAT      O 4547   2.112   3.422   1.673  0.1450 -0.0409 -0.1371
 1488WAT     H1 4548   2.038   3.390   1.725  1.8565  0.2070  2.6502
 1488WAT     H2 4549   2.088   3.512   1.649 -0.8239 -0.2767 -0.0768
 1489WAT      O 4550   2.947   3.986   0.744 -0.0938 -0.0946 -0.2400
 1489WAT     H1 4551   2.975   3.957   0.657  0.1445 -2.4458  0.5637
 1489WAT     H2 4552   2.909   4.073   0.729 -0.1321 -0.4691 -2.6907
 1490WAT      O 4553   3.091   2.285   0.822 -0.5606  0.2506 -0.0604
 1490WAT     H1 4554   3.085   2.228   0.745 -0.1713 -1.2261  0.9626
 1490WAT     H2 4555   3.125   2.368   0.788 -1.2860 -0.0571 -1.6164
 1491WAT      O 4556   0.904   1.533   2.537  0.6755 -0.2525 -0.7492
 1491WAT     H1 4557   0.878   1.612   2.586  1.6790 -0.4115  0.0901
 1491WAT     H2 4558   0.873   1.548   2.448  0.7439  1.0536 -0.5732
 1492WAT      O 4559   2.692   2.010   1.252  0.4148 -0.3532  0.2394
 1492WAT     H1 4560   2.667   1.995   1.344  1.2074  0.7825  0.6595
 1492WAT     H2 4561   2.721   2.101   1.250 -1.6353  0.3399 -1.6164
 1493WAT      O 4562   0.050   1.085   2.919 -0.0471  0.1453 -0.3196
 1493WAT     H1 4563   0.060   1.179   2.904 -0.9141  0.4790  1.0231
 1493WAT     H2 4564   0.014   1.079   3.007  0.8813 -1.4972 -0.0215
 1494WAT      O 4565   2.709   2.969   3.142 -0.0083  0.3736  0.2613
 1494WAT     H1 4566   2.652   2.990   3.069  0.4873 -0.5388 -0.4108
 1494WAT     H2 4567   2.759   3.049   3.158  2.3010 -0.3077 -2.6393
 1495WAT      O 4568   2.147   1.257   0.086  0.2502  0.4792  0.0783
 1495WAT     H1 4569   2.110   1.176   0.051 -1.7002  0.9806  0.8634
 1495WAT     H2 4570   2.102   1.327   0.039  1.3364  1.1511 -0.0205
 1496WAT      O 4571   1.155   3.627   2.279  0.1956 -0.6245  0.3751
 1496WAT     H1 4572   1.200   3.687   2.339 -2.7553  1.6391  0.5372
 1496WAT     H2 4573   1.164   3.541   2.321  2.4392  0.0476  1.4390
 1497WAT      O 4574   1.483   2.424   3.752 -0.5426 -0.3898 -0.1368
 1497WAT     H1 4575   1.457   2.333   3.762  1.0078 -0.7908  0.4959
 1497WAT     H2 4576   1.575   2.426   3.778  0.0788  0.9478 -2.1882
 1498WAT      O 4577   0.702   0.359   3.699 -0.8327 -0.1354 -0.5551
 1498WAT     H1 4578   0.698   0.264   3.684  0.9164 -0.3383  0.0193
 1498WAT     H2 4579   0.652   0.396   3.626 -2.1962 -1.5013 -0.3812
 1499WAT      O 4580   2.629   2.304   1.280 -0.7887  0.4220  0.0331
 1499WAT     H1 4581   2.612   2.380   1.225 -0.6922  1.4982  1.4225
 1499WAT     H2 4582   2.634   2.340   1.369  1.0679 -0.9333  0.5396
 1500WAT      O 4583   1.977   2.248   0.501  0.2736  0.6124  0.2210
 1500WAT     H1 4584   1.884   2.267   0.494  0.2774  0.0013 -2.8273
 1500WAT     H2 4585   1.989   2.217   0.591 -2.7080 -0.6465  0.2905
 1501WAT      O 4586   1.220   2.792   1.554  0.3759 -0.1782  0.4688
 1501WAT     H1 4587   1.186   2.840   1.478 -1.0060  1.2016  1.8898
 1501WAT     H2 4588   1.225   2.701   1.525 -1.9104  0.0094 -0.7243
 1502WAT      O 4589   0.647   2.272   3.368 -1.3729  0.2200  0.0761
 1502WAT     H1 4590   0.644   2.178   3.384 -0.8490  0.4428  1.7386
 1502WAT     H2 4591   0.741   2.292   3.363 -1.4082  0.8666  1.4543
 1503WAT      O 4592   2.002   3.774   1.132  0.3185 -0.1040  0.1466
 1503WAT     H1 4593   2.060   3.711   1.089  0.7803  1.3331 -1.4829
 1503WAT     H2 4594   2.056   3.814   1.200  0.5011 -0.4072  0.1805
 1504WAT      O 4595   3.394   3.799   2.034  0.0638  0.4798 -0.0448
 1504WAT     H1 4596   3.479   3.841   2.051  0.5918 -0.9473  1.0903
 1504WAT     H2 4597   3.330   3.855   2.077  0.6520  0.5923  0.6970
 1505WAT      O 4598   0.073   1.796   0.543  0.7424  0.2430 -1.0771
 1505WAT     H1 4599   0.096   1.774   0.633 -2.0261  2.2369  0.2327
 1505WAT     H2 4600   0.075   1.712   0.497  0.6657 -1.0947  1.2132
 1506WAT      O 4601   0.085   2.844   1.848  0.1290 -0.3523  0.7258
 1506WAT     H1 4602   0.028   2.903   1.896  1.0927  0.2104  1.2052
 1506WAT     H2 4603   0.043   2.835   1.762  0.0227  1.1386  0.5946
 1507WAT      O 4604   3.207   2.219   1.366  0.1201 -0.1540 -0.2844
 1507WAT     H1 4605   3.129   2.254   1.323  0.1772  0.6685  0.2747
 1507WAT     H2 4606   3.178   2.137   1.406 -0.0680 -0.6579 -1.4090
 1508WAT      O 4607   2.361   0.105   1.789  0.1979 -0.1764 -0.3103
 1508WAT     H1 4608   2.340   0.111   1.696 -1.6976 -1.4600 -0.0289
 1508WAT     H2 4609   2.360   0.011   1.808 -0.4826  0.0887  1.1882
 1509WAT      O 4610   1.337   3.753   2.430 -0.1331 -0.0465  0.8032
 1509WAT     H1 4611   1.361   3.844   2.413 -1.7147  0.7083  2.2606
 1509WAT     H2 4612   1.385   3.730   2.508 -0.9807  0.1260  1.3938
 1510WAT      O 4613   2.861   2.733   3.101 -0.1404  0.4790 -0.1220
 1510WAT     H1 4614   2.810   2.813   3.107 -0.1856  0.6001 -1.7648
 1510WAT     H2 4615   2.810   2.668   3.149 -0.9026  1.0531 -0.1474
 1511WAT      O 4616   0.430   2.913   0.016 -0.3229  0.2262 -0.2261
 1511WAT     H1 4617   0.383   2.830   0.018 -0.8859  0.5598  0.8988
 1511WAT     H2 4618   0.375   2.971  -0.036 -1.0966  0.5523  0.9079
 1512WAT      O 4619   1.280   3.923   2.956  0.0654  0.1067 -0.3706
 1512WAT     H1 4620   1.251   3.947   3.044 -1.4171  2.1326 -1.3000
 1512WAT     H2 4621   1.358   3.870   2.969  1.1299  2.0816  2.1203
 1513WAT      O 4622   2.586   1.701   2.913 -0.6575 -0.4614  0.2175
 1513WAT     H1 4623   2.595   1.791   2.882  1.6254 -0.5697  0.3662
 1513WAT     H2 4624   2.585   1.648   2.833 -0.1113 -0.4076  0.1709
 1514WAT      O 4625   0.499   1.468   1.829  0.5047  0.2425  0.4548
 1514WAT     H1 4626   0.593   1.478   1.842  0.6025  0.6175 -0.5347
 1514WAT     H2 4627   0.461   1.500   1.911  1.2542 -0.7152  1.2179
 1515WAT      O 4628   2.372   3.296   3.885 -0.0006 -0.5316  0.2360
 1515WAT     H1 4629   2.328   3.278   3.968  0.4430  0.8318  0.7751
 1515WAT     H2 4630   2.439   3.361   3.905 -0.0624  0.0354 -1.2317
 1516WAT      O 4631   3.517   3.458   3.945  0.1984  0.1661  0.0945
 1516WAT     H1 4632   3.492   3.547   3.921 -1.1200  0.3018  1.7742
 1516WAT     H2 4633   3.464   3.402   3.887  0.8226  0.4411 -0.7670
 1517WAT      O 4634   1.894   1.758   3.914 -0.3855  0.3167 -0.2349
 1517WAT     H1 4635   1.923   1.826   3.975  3.1352 -2.2751  1.3434
 1517WAT     H2 4636   1.834   1.704   3.966 -0.6587  0.4349 -0.4285
 1518WAT      O 4637   1.092   0.480   2.938  0.1681 -0.1394  0.1564
 1518WAT     H1 4638   1.177   0.480   2.893  0.9335 -0.7063  1.5434
 1518WAT     H2 4639   1.063   0.571   2.934  2.0902  0.6227  1.9029
 1519WAT      O 4640   1.044   1.125   3.181 -0.3499  0.6810  0.1660
 1519WAT     H1 4641   1.020   1.218   3.183 -0.9372  0.5190  0.7530
 1519WAT     H2 4642   1.126   1.120   3.230 -1.4807  0.5701  2.1357
 1520WAT      O 4643   1.635   1.987   0.017  0.3340 -0.9713 -0.1941
 1520WAT     H1 4644   1.714   2.028  -0.018  0.9785 -2.1568 -0.1590
 1520WAT     H2 4645   1.564   2.025  -0.034  0.9237  0.0173 -0.3119
 1521WAT      O 4646   0.049   0.012   3.113  0.0083 -0.8727 -0.1947
 1521WAT     H1 4647  -0.018   0.062   3.067 -0.2365 -1.2188 -0.2156
 1521WAT     H2 4648   0.032   0.031   3.206  0.8159  0.2275 -0.2480
 1522WAT      O 4649   2.037   0.438   1.148  0.1274 -0.5061 -0.5025
 1522WAT     H1 4650   2.015   0.376   1.078 -0.1328 -0.8503 -0.1183
 1522WAT     H2 4651   1.958   0.491   1.159  1.4536  2.4364 -3.3807
 1523WAT      O 4652   3.598   0.670   3.871  0.2467  0.1700  0.0070
 1523WAT     H1 4653   3.645   0.613   3.810 -2.2830 -1.5297 -0.5230
 1523WAT     H2 4654   3.620   0.759   3.842  3.4083 -0.4580  0.1238
 1524WAT      O 4655   1.196   0.161   1.566  0.1861 -0.0770 -0.2164
 1524WAT     H1 4656   1.188   0.248   1.528 -1.2625 -0.1454 -0.1155
 1524WAT     H2 4657   1.110   0.120   1.551  1.0292 -1.7296 -0.8705
 1525WAT      O 4658   2.394   1.167   0.206  0.7321 -0.3570  0.0594
 1525WAT     H1 4659   2.428   1.250   0.242 -0.8581  0.8088 -1.0135
 1525WAT     H2 4660   2.318   1.192   0.154 -1.3414 -2.7398  1.6855
 1526WAT      O 4661   2.142   1.504   3.475  0.1325 -0.4646  0.0587
 1526WAT     H1 4662   2.133   1.593   3.442  1.3852 -0.3939 -0.1435
 1526WAT     H2 4663   2.138   1.513   3.570 -1.1033 -0.3781  0.0179
 1527WAT      O 4664   2.182   2.954   3.343  0.0030 -0.7351 -0.6313
 1527WAT     H1 4665   2.226   3.033   3.312  1.0370 -0.3717  1.5223
 1527WAT     H2 4666   2.200   2.888   3.276  1.5794  0.1278 -1.1132
 1528WAT      O 4667   0.072   1.001   0.304  0.4856 -0.0077 -0.2834
 1528WAT     H1 4668   0.060   1.045   0.388  1.3163  0.8273 -0.5905
 1528WAT     H2 4669   0.001   0.936   0.301 -0.4343  0.9331  0.4214
 1529WAT      O 4670   2.976   2.492   3.653 -0.0133 -0.4199  0.4299
 1529WAT     H1 4671   2.886   2.522   3.646 -0.1075 -0.7648  0.1399
 1529WAT     H2 4672   2.969   2.402   3.686  0.1568 -0.8641 -0.6812
 1530WAT      O 4673   0.721   1.207   0.424 -0.3006  0.0305  0.4236
 1530WAT     H1 4674   0.784   1.216   0.352  0.6171  0.3915  1.2316
 1530WAT     H2 4675   0.636   1.199   0.381 -0.1798  3.2095 -0.7259
 1531WAT      O 4676   1.550   3.248   2.875  0.0982 -0.1177  0.5231
 1531WAT     H1 4677   1.589   3.236   2.962 -0.6127 -1.1345  0.7246
 1531WAT     H2 4678   1.460   3.218   2.886  0.6502 -2.7352 -1.1508
 1532WAT      O 4679   3.060   3.754   1.852  0.8462  0.1459  0.4270
 1532WAT     H1 4680   3.030   3.828   1.800 -0.1807 -0.3181  0.3242
 1532WAT     H2 4681   3.051   3.784   1.943 -2.4023 -0.7801  0.5383
 1533WAT      O 4682   3.386   0.438   0.811  0.1536 -0.4151 -0.0517
 1533WAT     H1 4683   3.293   0.446   0.791  0.1422 -1.8768 -0.7485
 1533WAT     H2 4684   3.393   0.461   0.904 -0.2836  3.3891 -0.8161
 1534WAT      O 4685   0.329   1.590   1.036 -0.6937  0.7391  0.4458
 1534WAT     H1 4686   0.264   1.531   0.998 -0.2493  1.7007 -1.9662
 1534WAT     H2 4687   0.386   1.533   1.087 -0.8022 -0.8167 -1.0746
 1535WAT      O 4688   0.175   3.329   3.460 -0.0346  0.5457  0.0027
 1535WAT     H1 4689   0.254   3.376   3.435 -0.5343  1.2752 -0.2608
 1535WAT     H2 4690   0.148   3.282   3.381  0.7435 -0.6100  0.4089
 1536WAT      O 4691   3.529   1.596   2.628 -0.6524 -0.0343  0.1429
 1536WAT     H1 4692   3.566   1.510   2.608 -0.0117  0.4621 -0.9043
 1536WAT     H2 4693   3.465   1.612   2.558  1.1004  1.4273 -1.2163
 1537WAT      O 4694   2.227   2.176   3.520  0.7430  0.4159 -0.2275
 1537WAT     H1 4695   2.253   2.103   3.577  0.5691  1.8074  1.7608
 1537WAT     H2 4696   2.249   2.254   3.571 -0.9421  1.7240 -1.4217
 1538WAT      O 4697   2.647   3.278   2.241  0.0230 -0.5164  0.2571
 1538WAT     H1 4698   2.655   3.358   2.293  0.8489 -0.3221 -0.1585
 1538WAT     H2 4699   2.576   3.229   2.284 -0.7270  0.5825  0.3056
 1539WAT      O 4700   3.663   3.203   1.179 -0.5047 -0.0245  0.3144
 1539WAT     H1 4701   3.685   3.289   1.215  1.0940 -0.8096  1.2812
 1539WAT     H2 4702   3.602   3.165   1.242  1.6958 -1.0819  1.9234
 1540WAT      O 4703   3.426   2.374   1.814  0.1933  0.3241 -0.7802
 1540WAT     H1 4704   3.497   2.392   1.752 -0.6252 -0.1220 -1.8891
 1540WAT     H2 4705   3.364   2.320   1.764 -0.2775 -0.4416  0.5833
 1541WAT      O 4706   2.317   1.737   1.375  0.2408 -0.0666 -0.7649
 1541WAT     H1 4707   2.298   1.800   1.306 -0.3095  1.5388  0.7723
 1541WAT     H2 4708   2.412   1.744   1.389  0.4044 -0.6256 -1.5390
 1542WAT      O 4709   0.958   0.669   0.541 -0.2169  0.1434  0.1995
 1542WAT     H1 4710   0.921   0.581   0.532  1.5874 -0.6603  0.0485
 1542WAT     H2 4711   1.025   0.673   0.473 -0.5469  1.8060 -0.0481
 1543WAT      O 4712   1.400   1.893   2.694  0.1553  0.1993 -0.0549
 1543WAT     H1 4713   1.334   1.869   2.629  0.7283 -1.1851 -0.1621
 1543WAT     H2 4714   1.352   1.942   2.761 -1.2717 -1.9018  0.5592
 1544WAT      O 4715   1.259   1.148   3.370  0.6090 -0.2744  0.1853
 1544WAT     H1 4716   1.258   1.238   3.337  1.9594 -0.2942  0.0321
 1544WAT     H2 4717   1.227   1.155   3.460 -0.4292  0.1788 -0.1980
 1545WAT      O 4718   3.223   1.974   1.162  0.7503  0.9917  0.2011
 1545WAT     H1 4719   3.134   1.988   1.191  0.5055  0.5814 -0.3241
 1545WAT     H2 4720   3.254   2.061   1.135  1.1317  1.4635  2.0215
 1546WAT      O 4721   0.767   3.404   0.793 -0.0493 -0.6212 -0.2352
 1546WAT     H1 4722   0.758   3.422   0.699 -0.2293  0.1830 -0.0715
 1546WAT     H2 4723   0.834   3.466   0.823 -1.4390  0.5433  0.5538
 1547WAT      O 4724   2.943   0.991   3.546  0.3737 -0.0686  0.3957
 1547WAT     H1 4725   2.874   0.960   3.604  0.8536 -1.1134  0.4501
 1547WAT     H2 4726   2.985   0.910   3.515 -0.2281  0.4049 -1.8609
 1548WAT      O 4727   1.147   0.650   1.382 -0.4458  0.1289 -0.3653
 1548WAT     H1 4728   1.088   0.716   1.346 -0.7558 -1.2183 -2.4683
 1548WAT     H2 4729   1.232   0.667   1.340  0.0677  0.5505  0.7979
 1549WAT      O 4730   3.682   4.031   0.177 -0.5083  0.1967  0.0104
 1549WAT     H1 4731   3.705   4.001   0.089 -0.8780 -1.6364  0.4995
 1549WAT     H2 4732   3.596   4.072   0.167 -0.3342  0.4248 -0.5667
 1550WAT      O 4733   1.690   2.112   2.222 -0.0647 -0.0882 -0.2970
 1550WAT     H1 4734   1.768   2.144   2.177  0.5159 -1.2710 -0.1826
 1550WAT     H2 4735   1.617   2.147   2.172  0.5274 -2.0505 -2.7468
 1551WAT      O 4736   3.516   1.986   3.225 -0.0969 -0.2575 -0.0316
 1551WAT     H1 4737   3.512   2.082   3.230 -1.5094 -0.2744 -0.4092
 1551WAT     H2 4738   3.495   1.967   3.134 -1.3709 -0.9803  0.3921
 1552WAT      O 4739   1.273   1.476   3.789  0.5072 -0.0962  0.1514
 1552WAT     H1 4740   1.274   1.566   3.821  0.6269  0.7228 -1.9398
 1552WAT     H2 4741   1.183   1.462   3.760  0.0612 -1.2798  1.9420
 1553WAT      O 4742   0.043   1.797   1.880  0.0197 -0.1379 -0.3010
 1553WAT     H1 4743   0.109   1.819   1.947 -0.6132 -0.4917  0.4559
 1553WAT     H2 4744   0.088   1.812   1.797  0.9970 -0.1841  0.1977
 1554WAT      O 4745   1.692   3.963   3.083  0.2124  0.1502  0.0708
 1554WAT     H1 4746   1.655   3.874   3.087  1.0140 -0.2104 -0.4423
 1554WAT     H2 4747   1.706   3.979   2.990  1.3137  0.2951  0.2515
 1555WAT      O 4748   0.246   0.098   0.791  0.8849  0.3324  0.3385
 1555WAT     H1 4749   0.161   0.079   0.831  1.7499  0.0485  2.1164
 1555WAT     H2 4750   0.237   0.068   0.701 -0.2944 -1.4501  1.0059
 1556WAT      O 4751   1.356   0.946   3.211  0.4644 -0.4620 -0.1463
 1556WAT     H1 4752   1.327   1.008   3.277  0.3660  0.5353 -1.1071
 1556WAT     H2 4753   1.429   0.900   3.253  0.6667  0.4298  0.5158
 1557WAT      O 4754   3.626   1.153   0.042  0.2080  0.3143 -0.0599
 1557WAT     H1 4755   3.552   1.160  -0.018  1.0204 -0.1158 -1.1205
 1557WAT     H2 4756   3.585   1.139   0.128 -0.9225 -0.5122 -0.7119
 1558WAT      O 4757   3.572   3.292   0.932  0.2509  0.2278  0.1931
 1558WAT     H1 4758   3.498   3.321   0.986  1.1973  0.1615  1.5899
 1558WAT     H2 4759   3.633   3.252   0.995  2.6412  2.5586 -0.4728
 1559WAT      O 4760   1.039   1.242   0.563  0.2200 -0.2327 -0.1525
 1559WAT     H1 4761   0.949   1.273   0.561  0.5665  0.7813 -1.3368
 1559WAT     H2 4762   1.086   1.301   0.504  1.4795 -1.2903 -0.2615
 1560WAT      O 4763   1.377   1.188   0.903  0.3311  0.1473  0.4387
 1560WAT     H1 4764   1.332   1.243   0.967 -1.8065 -0.3928 -0.5008
 1560WAT     H2 4765   1.408   1.249   0.836  2.3284  0.6824  1.7547
 1561WAT      O 4766   2.853   2.459   0.025  0.8638 -0.3547  0.0256
 1561WAT     H1 4767   2.810   2.510  -0.043  1.2904 -2.2682 -1.7910
 1561WAT     H2 4768   2.811   2.487   0.107 -0.4653  1.2008 -1.1240
 1562WAT      O 4769   1.834   1.136   1.876 -0.4455 -0.2950  0.1678
 1562WAT     H1 4770   1.758   1.189   1.902 -0.8967 -0.3089 -1.0755
 1562WAT     H2 4771   1.906   1.198   1.869 -0.9388  0.1607 -1.1386
 1563WAT      O 4772   3.271   0.135   3.426  0.0551 -0.3701  0.0384
 1563WAT     H1 4773   3.332   0.078   3.379 -0.1072 -0.7274  0.2588
 1563WAT     H2 4774   3.314   0.153   3.510 -0.3257 -0.9682  0.3669
 1564WAT      O 4775   0.004   0.855   3.257 -0.2963  0.2315  0.8838
 1564WAT     H1 4776  -0.013   0.845   3.350 -1.6300 -0.4019  0.5907
 1564WAT     H2 4777  -0.030   0.942   3.236 -2.1053 -0.5099  0.5670
 1565WAT      O 4778   0.348   1.761   3.901 -0.3100 -0.2774 -0.5038
 1565WAT     H1 4779   0.287   1.834   3.900  1.9103  1.7296 -1.7099
 1565WAT     H2 4780   0.326   1.710   3.823 -0.9071  0.0090 -0.5288
 1566WAT      O 4781   2.859   1.341   2.853  0.0754  0.2258  0.7846
 1566WAT     H1 4782   2.949   1.330   2.822 -0.3641  0.2972 -0.5758
 1566WAT     H2 4783   2.837   1.431   2.831 -1.1327 -0.4826 -1.1965
 1567WAT      O 4784   0.109   2.612   2.715  0.1032 -0.7203 -0.0385
 1567WAT     H1 4785   0.064   2.665   2.781 -0.3385  0.6014 -1.3686
 1567WAT     H2 4786   0.053   2.534   2.706 -3.1160  1.6303 -2.9068
 1568WAT      O 4787   0.044   0.697   3.046  0.1333  0.3309  0.1684
 1568WAT     H1 4788   0.014   0.751   3.119 -0.8775  0.2910 -0.1887
 1568WAT     H2 4789  -0.017   0.624   3.044  1.0692 -0.4694  0.2100
 1569WAT      O 4790   2.911   2.048   3.440  0.6451 -0.1715 -0.5636
 1569WAT     H1 4791   2.983   2.093   3.396  2.1277 -0.9716  0.9417
 1569WAT     H2 4792   2.948   1.964   3.468 -1.5882 -1.7156 -1.9083
 1570WAT      O 4793   3.522   2.425   3.908  0.3638 -0.1905  0.0825
 1570WAT     H1 4794   3.490   2.344   3.949 -1.6357 -0.0074 -0.9552
 1570WAT     H2 4795   3.464   2.493   3.942  0.7270  0.4665 -0.5951
 1571WAT      O 4796   3.551   2.858   2.604  0.4885 -0.0618  0.2850
 1571WAT     H1 4797   3.580   2.914   2.532 -2.9148  1.0259 -0.4630
 1571WAT     H2 4798   3.555   2.769   2.570  1.8721  0.1161 -0.0667
 1572WAT      O 4799   1.982   1.722   1.196  0.1129 -0.0284 -0.1098
 1572WAT     H1 4800   1.895   1.700   1.162 -0.2945  0.2547  0.7100
 1572WAT     H2 4801   2.010   1.796   1.142 -0.8090  0.8445  0.5568
 1573WAT      O 4802   1.165   0.394   1.868  0.0325 -0.0234  0.2057
 1573WAT     H1 4803   1.211   0.346   1.936  0.3366  0.3329  0.2535
 1573WAT     H2 4804   1.230   0.405   1.798 -0.1692 -0.0762  0.0076
 1574WAT      O 4805   2.451   3.185   1.381 -0.4468 -0.5207  0.4860
 1574WAT     H1 4806   2.521   3.121   1.387  0.8627  0.7448 -0.7254
 1574WAT     H2 4807   2.453   3.229   1.466  1.1001  0.3341  0.0487
 1575WAT      O 4808   1.586   3.500   3.721  0.0770  0.2784 -0.1491
 1575WAT     H1 4809   1.572   3.584   3.678  0.6261 -0.3049 -1.5161
 1575WAT     H2 4810   1.502   3.455   3.716  0.0530  0.3437 -0.3139
 1576WAT      O 4811   3.472   2.376   0.489 -0.1578  0.1026 -0.0010
 1576WAT     H1 4812   3.445   2.328   0.410 -0.4613 -2.4745  1.5309
 1576WAT     H2 4813   3.391   2.415   0.522 -0.5330 -0.9550  0.3630
 1577WAT      O 4814   2.385   0.599   0.907  0.3038 -0.2522 -0.5330
 1577WAT     H1 4815   2.398   0.505   0.914  1.6685 -0.2730 -2.4312
 1577WAT     H2 4816   2.341   0.624   0.988  0.1735 -2.4594  0.1311
 1578WAT      O 4817   2.360   0.780   3.596 -0.4554 -0.4202  0.2429
 1578WAT     H1 4818   2.292   0.840   3.624 -0.8675 -0.0756 -1.3868
 1578WAT     H2 4819   2.347   0.702   3.650 -2.9260 -0.8294 -0.7817
 1579WAT      O 4820   2.603   0.155   2.416 -0.5065  0.6052 -0.2500
 1579WAT     H1 4821   2.599   0.240   2.372 -1.7197  1.2290  1.0052
 1579WAT     H2 4822   2.513   0.123   2.413 -0.0921 -0.5790 -0.5507
 1580WAT      O 4823   2.303   0.990   2.824 -0.2645 -0.0677  0.9350
 1580WAT     H1 4824   2.381   0.991   2.768  0.7182  0.9431  2.2550
 1580WAT     H2 4825   2.291   0.897   2.845  0.7764 -0.2168  0.9535
 1581WAT      O 4826   1.247   0.408   0.927 -0.2467  0.0495 -0.1859
 1581WAT     H1 4827   1.342   0.397   0.913  0.0505  2.4152 -0.4197
 1581WAT     H2 4828   1.221   0.475   0.864 -2.4004 -1.4482 -1.0180
 1582WAT      O 4829   1.973   0.816   0.564 -0.0903  0.3572 -0.0528
 1582WAT     H1 4830   2.058   0.820   0.520 -0.2759 -1.3573 -0.6707
 1582WAT     H2 4831   1.988   0.855   0.650  0.7405  2.0980 -0.9437
 1583WAT      O 4832   3.231   2.944   2.419 -0.7752 -0.4832  0.0410
 1583WAT     H1 4833   3.250   3.036   2.399  0.5901 -0.2591  2.0610
 1583WAT     H2 4834   3.177   2.948   2.498  0.5083 -1.3864  1.0200
 1584WAT      O 4835   3.053   2.644   1.969 -0.2099 -0.5116 -0.1816
 1584WAT     H1 4836   3.144   2.673   1.963  0.2643 -1.7779  0.5315
 1584WAT     H2 4837   3.038   2.596   1.888 -0.2908 -0.2088 -0.3494
 1585WAT      O 4838   2.278   3.679   0.258 -0.0202  0.1495 -0.4396
 1585WAT     H1 4839   2.279   3.622   0.335 -0.0881 -3.0609 -2.6284
 1585WAT     H2 4840   2.186   3.683   0.233  0.1407  0.1421 -1.0382
 1586WAT      O 4841   0.038   0.525   1.629 -0.0742  1.1367 -0.1066
 1586WAT     H1 4842   0.120   0.572   1.612  1.5293 -0.1490  3.2580
 1586WAT     H2 4843   0.033   0.460   1.559  2.5141  0.4307  0.2683
 1587WAT      O 4844   1.567   3.090   2.226 -0.3491  0.1045 -0.1131
 1587WAT     H1 4845   1.576   3.158   2.159 -1.6210  1.3407  0.9238
 1587WAT     H2 4846   1.528   3.016   2.180 -0.8689  0.8082 -0.8264
 1588WAT      O 4847   0.941   0.459   3.783  0.0659  0.0795 -0.0176
 1588WAT     H1 4848   0.911   0.465   3.874 -0.7367 -0.9620 -0.1992
 1588WAT     H2 4849   0.863   0.437   3.733  0.3087  1.5747 -1.1125
 1589WAT      O 4850   2.671   2.617   3.887 -0.0140 -0.3298  0.2562
 1589WAT     H1 4851   2.577   2.602   3.898 -0.3732  0.8413 -0.9039
 1589WAT     H2 4852   2.680   2.643   3.795  1.7444 -2.5550 -0.2917
 1590WAT      O 4853   1.737   3.292   0.356  0.4063  0.3902 -0.6716
 1590WAT     H1 4854   1.698   3.307   0.442 -1.2164 -1.2521 -1.0574
 1590WAT     H2 4855   1.767   3.201   0.359  2.1657  0.9208 -1.1957
 1591WAT      O 4856   0.640   3.859   0.053 -0.4283  0.2755 -0.1079
 1591WAT     H1 4857   0.686   3.780   0.080 -1.2354 -1.4230 -3.2095
 1591WAT     H2 4858   0.562   3.862   0.108 -0.5844 -1.3464 -0.1982
 1592WAT      O 4859   1.983   1.674   0.365 -0.3648  0.4163 -0.0132
 1592WAT     H1 4860   1.995   1.639   0.454 -0.0159  0.0528 -0.1993
 1592WAT     H2 4861   1.901   1.634   0.335 -0.1140 -0.0211 -0.1188
 1593WAT      O 4862   2.529   0.510   3.294  0.0266  0.5902  0.0569
 1593WAT     H1 4863   2.609   0.538   3.339  0.6941  0.0265 -0.7384
 1593WAT     H2 4864   2.472   0.587   3.295  0.1618  0.6955  1.5287
 1594WAT      O 4865   1.682   0.193   0.484 -0.1639 -0.3009  0.0132
 1594WAT     H1 4866   1.667   0.140   0.563 -0.3875 -0.1762  0.0550
 1594WAT     H2 4867   1.705   0.129   0.416 -0.0345 -0.4141  0.1625
 1595WAT      O 4868   2.854   0.478   3.855 -0.3132 -0.3650  0.2078
 1595WAT     H1 4869   2.786   0.460   3.919  0.2719  1.0994  1.2821
 1595WAT     H2 4870   2.916   0.405   3.865 -0.4594 -0.3861  0.9924
 1596WAT      O 4871   1.893   3.055   0.405 -0.7307 -0.3641  0.0042
 1596WAT     H1 4872   1.952   3.000   0.458  0.2499 -0.2667 -0.9529
 1596WAT     H2 4873   1.808   3.046   0.447 -0.6465 -2.7456 -0.2060
 1597WAT      O 4874   1.380   0.017   3.340  0.6564 -0.2392 -0.8640
 1597WAT     H1 4875   1.346  -0.053   3.284 -0.1519 -1.5741  1.1519
 1597WAT     H2 4876   1.302   0.067   3.364  0.9854  0.2886 -0.8933
 1598WAT      O 4877   3.520   0.725   1.974 -0.3817 -0.6848  0.0867
 1598WAT     H1 4878   3.439   0.686   2.007 -0.5411  0.1754  0.7536
 1598WAT     H2 4879   3.573   0.651   1.946 -1.2622 -1.2852 -0.0433
 1599WAT      O 4880   1.722   3.086   1.523  0.3431  0.0776  0.0836
 1599WAT     H1 4881   1.786   3.048   1.463  0.3746 -0.4619  0.4482
 1599WAT     H2 4882   1.768   3.088   1.607  0.5475  1.4710 -0.0410
 1600WAT      O 4883   2.769   2.359   2.097 -0.6075  0.0814  0.2163
 1600WAT     H1 4884   2.735   2.425   2.037 -0.6666  0.7205  0.9419
 1600WAT     H2 4885   2.824   2.408   2.158  0.0525 -0.6618  0.2456
 1601WAT      O 4886   0.264   0.376   0.787  1.0423  0.0250 -0.0642
 1601WAT     H1 4887   0.203   0.398   0.716  0.0421  1.5951  1.1888
 1601WAT     H2 4888   0.270   0.281   0.785  2.1996  0.0280 -3.1313
 1602WAT      O 4889   2.005   0.571   0.215 -0.1219  0.0241  0.1876
 1602WAT     H1 4890   1.951   0.508   0.263  1.5110 -0.4469  1.5062
 1602WAT     H2 4891   2.045   0.626   0.283  0.9438  0.4379 -0.7291
 1603WAT      O 4892   0.896   0.921   0.385  0.1554  0.2567 -0.3026
 1603WAT     H1 4893   0.970   0.880   0.429 -1.0193 -1.5169  0.1200
 1603WAT     H2 4894   0.926   1.010   0.366  2.1011 -0.1654  0.5255
 1604WAT      O 4895   2.442   4.094   0.351  0.4803 -0.1847 -0.1178
 1604WAT     H1 4896   2.350   4.075   0.366  0.0402  2.5173  1.2927
 1604WAT     H2 4897   2.486   4.010   0.362 -1.6751 -1.3322  0.3224
 1605WAT      O 4898   3.196   1.268   1.726  0.0247 -0.3335  0.1786
 1605WAT     H1 4899   3.221   1.361   1.725 -1.7342  0.1689 -1.3036
 1605WAT     H2 4900   3.102   1.269   1.741 -0.6119 -1.6539 -2.9767
 1606WAT      O 4901   3.535   2.436   2.762 -0.0480 -0.0830 -0.1145
 1606WAT     H1 4902   3.584   2.423   2.843 -0.4665 -0.5573  0.0664
 1606WAT     H2 4903   3.448   2.462   2.790 -0.4780 -1.1614 -0.3718
 1607WAT      O 4904   2.054   0.454   1.834  0.1727  0.0300  0.6149
 1607WAT     H1 4905   2.041   0.370   1.877 -1.7027  0.0245  0.1621
 1607WAT     H2 4906   2.000   0.515   1.885  0.8914  0.7907  0.4750
 1608WAT      O 4907   3.677   0.505   1.889 -0.2691 -0.4178 -0.6212
 1608WAT     H1 4908   3.743   0.463   1.944 -0.5139 -0.0940 -0.0788
 1608WAT     H2 4909   3.704   0.483   1.800  0.7753 -0.0134 -0.4307
 1609WAT      O 4910   0.735   2.959   1.085  0.3873 -0.1621 -0.4093
 1609WAT     H1 4911   0.683   3.013   1.025 -3.3622 -2.0218  0.8232
 1609WAT     H2 4912   0.771   2.889   1.031  0.7694  0.5849 -1.1388
 1610WAT      O 4913   3.051   0.200   1.854  0.0257 -0.1816  0.1363
 1610WAT     H1 4914   2.995   0.188   1.777 -0.0532  1.0968 -0.0292
 1610WAT     H2 4915   3.058   0.295   1.864  1.5862 -0.3145  0.5845
 1611WAT      O 4916   2.654   1.230   2.486 -0.2820  0.2073  0.0696
 1611WAT     H1 4917   2.747   1.216   2.500 -0.0780 -0.7304 -1.8767
 1611WAT     H2 4918   2.647   1.320   2.454 -0.0378  0.2518  0.1416
 1612WAT      O 4919   2.693   4.055   3.544  0.3143  0.3070 -0.0709
 1612WAT     H1 4920   2.641   3.994   3.492  0.3092 -0.3124  0.6327
 1612WAT     H2 4921   2.673   4.141   3.509 -2.5128  0.2778  1.2387
 1613WAT      O 4922   1.832   1.016   0.362  0.7268  0.6300  0.0147
 1613WAT     H1 4923   1.817   1.043   0.452 -0.8957  1.9595 -0.5981
 1613WAT     H2 4924   1.924   1.039   0.345  0.6745  1.5682  0.9374
 1614WAT      O 4925   1.703   3.825   2.615  0.1709  0.8171  0.5487
 1614WAT     H1 4926   1.618   3.781   2.622  0.1899  0.9497  1.8349
 1614WAT     H2 4927   1.693   3.884   2.540  0.2099 -1.4374 -1.3652
 1615WAT      O 4928   1.640   2.829   1.284 -0.3564  0.7942  0.2294
 1615WAT     H1 4929   1.724   2.876   1.289 -0.9460  1.9090 -0.0813
 1615WAT     H2 4930   1.577   2.895   1.256 -1.2377 -0.1731 -0.1449
 1616WAT      O 4931   2.213   1.000   2.529  0.2398  0.1694 -0.7204
 1616WAT     H1 4932   2.234   1.007   2.436  0.4470  1.0377 -0.6165
 1616WAT     H2 4933   2.214   1.090   2.561  0.9727 -0.1785  0.2971
 1617WAT      O 4934   3.701   1.534   3.265 -0.2231  0.1209  0.0906
 1617WAT     H1 4935   3.787   1.524   3.306 -0.5486  0.3521  0.8415
 1617WAT     H2 4936   3.682   1.447   3.230  0.5932  0.2249 -0.6477
 1618WAT      O 4937   3.023   3.904   0.478  0.3945  0.2291  0.2370
 1618WAT     H1 4938   2.972   3.981   0.457 -0.2805  0.0001  0.9841
 1618WAT     H2 4939   2.978   3.832   0.435  0.6116  0.1496  0.1387
 1619WAT      O 4940   0.135   1.378   2.883 -0.0168 -0.1627 -0.1470
 1619WAT     H1 4941   0.185   1.406   2.806  0.5201  2.0177  0.9106
 1619WAT     H2 4942   0.200   1.334   2.939 -0.3276 -1.4066 -0.7155
 1620WAT      O 4943   3.363   3.363   2.780 -0.1697 -0.0677 -0.2533
 1620WAT     H1 4944   3.307   3.296   2.820 -0.0043 -0.8126 -1.2409
 1620WAT     H2 4945   3.397   3.322   2.701 -1.3183  1.7419 -1.7453
 1621WAT      O 4946   0.336   0.966   0.397  0.7715  0.2775 -0.3350
 1621WAT     H1 4947   0.379   0.988   0.315 -0.0895 -0.2050 -0.9390
 1621WAT     H2 4948   0.243   0.981   0.380  0.5661  0.0387  0.5079
 1622WAT      O 4949   2.579   2.076   3.737 -0.1566 -0.4226 -0.1133
 1622WAT     H1 4950   2.501   2.046   3.690 -0.0988 -0.4173 -0.2153
 1622WAT     H2 4951   2.652   2.046   3.682 -0.1286  1.4406 -1.1727
 1623WAT      O 4952   2.233   0.725   0.693  0.1680 -0.0060 -0.3250
 1623WAT     H1 4953   2.289   0.692   0.764 -0.0373 -0.4712 -0.3737
 1623WAT     H2 4954   2.294   0.770   0.634  0.4327 -0.1450 -0.1630
 1624WAT      O 4955   0.561   2.979   2.107 -0.3881  0.0846  0.1790
 1624WAT     H1 4956   0.466   2.965   2.110 -0.2615 -1.2475 -0.8253
 1624WAT     H2 4957   0.598   2.903   2.153  0.2109 -0.3768 -1.0021
 1625WAT      O 4958   1.267   1.925   3.121 -0.5137 -0.1639  0.0266
 1625WAT     H1 4959   1.237   2.001   3.070  0.4297 -0.5242 -1.1015
 1625WAT     H2 4960   1.345   1.956   3.166 -1.5322  0.2513  1.5570
 1626WAT      O 4961   0.139   3.895   1.956 -0.3121 -0.1374  0.1398
 1626WAT     H1 4962   0.169   3.814   1.998  0.6559  0.9206  1.5838
 1626WAT     H2 4963   0.126   3.956   2.028 -1.0061  1.0228 -0.9258
 1627WAT      O 4964   2.054   2.134   0.261  0.1401  0.3279  0.1045
 1627WAT     H1 4965   2.137   2.151   0.218  0.3570 -3.3815 -1.2879
 1627WAT     H2 4966   2.060   2.180   0.345  2.2780  2.6076 -1.1789
 1628WAT      O 4967   3.171   2.565   1.464  0.3130  0.1187 -0.0197
 1628WAT     H1 4968   3.155   2.561   1.558  0.9834  1.3014  0.1646
 1628WAT     H2 4969   3.085   2.547   1.425  0.5470 -3.0248  0.7242
 1629WAT      O 4970   2.332   2.849   2.331 -0.1670  0.6839  0.1590
 1629WAT     H1 4971   2.250   2.801   2.341 -0.5357  1.4646  0.9044
 1629WAT     H2 4972   2.395   2.801   2.385  0.1899 -0.6082 -1.3317
 1630WAT      O 4973   0.193   0.079   0.274 -0.6338  0.8185 -0.1529
 1630WAT     H1 4974   0.124   0.022   0.240 -0.3875 -0.0388  0.7547
 1630WAT     H2 4975   0.226   0.124   0.196 -1.3716  0.3193 -0.7767
 1631WAT      O 4976   0.538   0.491   0.597  0.1738  0.2268 -0.3460
 1631WAT     H1 4977   0.590   0.495   0.517  1.4756 -2.9768  0.1859
 1631WAT     H2 4978   0.464   0.435   0.573  0.0014  0.1312  0.4053
 1632WAT      O 4979   1.421   1.362   2.437 -0.2374 -0.1131  0.1625
 1632WAT     H1 4980   1.344   1.356   2.380  0.7918 -3.0655 -1.1454
 1632WAT     H2 4981   1.387   1.342   2.524 -1.0472 -1.0997 -0.3481
 1633WAT      O 4982   0.519   2.004   2.260 -0.4039 -0.1531 -0.0757
 1633WAT     H1 4983   0.565   1.925   2.289 -0.2428 -0.7153 -1.7614
 1633WAT     H2 4984   0.584   2.073   2.267 -0.0589 -0.4717 -0.0747
 1634WAT      O 4985   2.890   2.827   2.470 -0.1735 -0.4609 -0.7020
 1634WAT     H1 4986   2.951   2.881   2.519  0.4914  0.6848 -2.6549
 1634WAT     H2 4987   2.907   2.738   2.500  1.8364 -0.0660 -0.5161
 1635WAT      O 4988   1.635   3.349   0.605 -0.0938 -0.0806 -0.1753
 1635WAT     H1 4989   1.602   3.435   0.630 -0.2173 -0.2342  0.2075
 1635WAT     H2 4990   1.728   3.350   0.627 -0.4568 -0.6536  1.5460
 1636WAT      O 4991   1.186   1.799   3.452 -0.3714 -0.5170  0.5664
 1636WAT     H1 4992   1.119   1.861   3.424 -1.2197 -1.1763  1.1083
 1636WAT     H2 4993   1.138   1.728   3.494  0.4605 -2.1124 -1.0274
 1637WAT      O 4994   1.757   0.648   3.891 -0.2412 -0.3635  0.0193
 1637WAT     H1 4995   1.684   0.644   3.954  0.9798 -1.7005  1.4246
 1637WAT     H2 4996   1.809   0.723   3.919  0.7301 -1.4176  1.1709
 1638WAT      O 4997   1.154   0.734   3.235 -0.4271 -0.2589  0.3856
 1638WAT     H1 4998   1.248   0.735   3.222 -0.5839 -0.5617 -0.9435
 1638WAT     H2 4999   1.119   0.699   3.153 -1.8040  1.4291  0.2063
 1639WAT      O 5000   0.352   1.648   0.517 -0.0648  0.1609 -0.0624
 1639WAT     H1 5001   0.346   1.666   0.611 -0.6426  1.0399 -0.2588
 1639WAT     H2 5002   0.295   1.573   0.503  1.2674 -1.0124  0.5391
 1640WAT      O 5003   1.081   0.152   2.927  0.6509  0.4083  0.0692
 1640WAT     H1 5004   1.028   0.089   2.878  1.5127  0.4598 -0.9588
 1640WAT     H2 5005   1.070   0.235   2.880  1.0596  0.5790  0.2699
 1641WAT      O 5006   1.115   3.161   3.083 -0.3200  0.0726 -0.0453
 1641WAT     H1 5007   1.042   3.222   3.086  0.4509  1.0165 -0.0892
 1641WAT     H2 5008   1.136   3.143   3.174 -0.6388 -0.2425 -0.0331
 1642WAT      O 5009   2.620   1.486   3.374 -0.1523 -0.0188  0.1872
 1642WAT     H1 5010   2.525   1.483   3.370 -0.1464  0.5068 -1.1462
 1642WAT     H2 5011   2.643   1.452   3.461 -1.5458 -0.0820  0.5422
 1643WAT      O 5012   2.408   1.401   2.728 -0.0388  0.3471 -0.1644
 1643WAT     H1 5013   2.355   1.358   2.661  2.5973 -2.4911 -0.6472
 1643WAT     H2 5014   2.390   1.352   2.809  0.7988  0.1939 -0.0535
 1644WAT      O 5015   0.943   0.772   0.136  0.4202 -0.0948  0.0168
 1644WAT     H1 5016   1.035   0.765   0.110  0.4707  2.2206 -0.6213
 1644WAT     H2 5017   0.945   0.823   0.217 -0.2920 -0.3934  0.2306
 1645WAT      O 5018   2.905   3.882   2.096  0.0611 -0.1505 -0.6313
 1645WAT     H1 5019   2.972   3.949   2.085  1.4341 -1.3255  0.1819
 1645WAT     H2 5020   2.855   3.911   2.172  0.7305 -0.0900 -0.1999
 1646WAT      O 5021   0.363   1.466   0.761 -0.0860  0.0380  0.2771
 1646WAT     H1 5022   0.290   1.467   0.698 -0.5739 -0.3197  0.8288
 1646WAT     H2 5023   0.330   1.414   0.834  0.6963 -0.0452  0.5731
 1647WAT      O 5024   0.906   0.372   0.612 -0.5127 -0.0845  0.7736
 1647WAT     H1 5025   0.898   0.352   0.519 -0.5016 -3.4679  1.3852
 1647WAT     H2 5026   0.997   0.397   0.624 -0.5256  0.4266 -0.1062
 1648WAT      O 5027   1.373   3.746   1.707 -0.1744 -0.2438 -0.2264
 1648WAT     H1 5028   1.301   3.804   1.731 -0.5362 -0.4090 -0.8915
 1648WAT     H2 5029   1.415   3.789   1.632  0.5278 -0.0655  0.2554
 1649WAT      O 5030   1.176   0.094   1.825  0.9291  0.0043 -0.0565
 1649WAT     H1 5031   1.175   0.114   1.732 -0.0593 -0.0067 -0.0642
 1649WAT     H2 5032   1.116   0.157   1.864  0.0252 -1.0451  0.3268
 1650WAT      O 5033   3.264   0.630   1.351 -0.1169 -1.0141  0.1126
 1650WAT     H1 5034   3.250   0.712   1.397 -0.0122 -1.5453  1.1235
 1650WAT     H2 5035   3.342   0.592   1.392 -0.0171 -1.5008 -0.5043
 1651WAT      O 5036   0.040   0.631   0.169  0.3100 -0.8631  0.3574
 1651WAT     H1 5037   0.056   0.548   0.124  2.5636  0.0682 -0.7427
 1651WAT     H2 5038   0.105   0.691   0.131 -0.4939  1.1005  1.9256
 1652WAT      O 5039   0.815   3.104   2.512 -0.5487 -0.1136  0.4108
 1652WAT     H1 5040   0.884   3.048   2.477 -0.4785  1.4422 -2.1485
 1652WAT     H2 5041   0.734   3.055   2.499 -0.2138 -0.8023  0.8933
 1653WAT      O 5042   2.666   4.064   0.953 -0.3864 -0.1463  0.6869
 1653WAT     H1 5043   2.606   4.099   1.019  0.3515 -2.0148  2.5019
 1653WAT     H2 5044   2.745   4.116   0.962 -0.4062 -0.1798  1.0728
 1654WAT      O 5045   2.119   3.212   1.038  0.0138 -0.3364  0.2680
 1654WAT     H1 5046   2.036   3.173   1.008 -0.7039  0.5790  1.0235
 1654WAT     H2 5047   2.172   3.137   1.064 -0.9530 -0.8800  0.7257
 1655WAT      O 5048   1.302   0.140   1.274 -0.2084 -0.4462 -0.6109
 1655WAT     H1 5049   1.223   0.086   1.280 -0.9335  0.5340 -0.9289
 1655WAT     H2 5050   1.269   0.229   1.260  0.9325  0.1823  0.5028
 1656WAT      O 5051   0.849   4.082   0.734  0.1879 -0.2926  0.1408
 1656WAT     H1 5052   0.885   4.138   0.802  1.6991  0.7852 -1.4635
 1656WAT     H2 5053   0.761   4.115   0.720  1.1770  2.0519 -1.0606
 1657WAT      O 5054   1.828   1.745   2.490  0.3620  0.3040  0.0232
 1657WAT     H1 5055   1.916   1.748   2.527  0.7874  0.7868 -0.9691
 1657WAT     H2 5056   1.834   1.801   2.412 -0.6705 -0.1212 -0.3745
 1658WAT      O 5057   0.834   1.296   1.052  0.7603 -0.0002 -0.2628
 1658WAT     H1 5058   0.768   1.307   0.983 -0.3478  1.4047  0.9412
 1658WAT     H2 5059   0.850   1.385   1.084  0.8882 -0.6495  1.5863
 1659WAT      O 5060   1.410   1.005   1.107 -0.1259 -0.1979 -0.0871
 1659WAT     H1 5061   1.330   1.033   1.152 -0.4083 -0.9711 -0.0918
 1659WAT     H2 5062   1.413   1.059   1.028  0.6754  1.5855  1.0751
 1660WAT      O 5063   1.794   1.272   0.027 -0.3345  0.0716 -0.0065
 1660WAT     H1 5064   1.811   1.289   0.119 -0.1543 -0.8628  0.1377
 1660WAT     H2 5065   1.708   1.231   0.025 -0.0130 -0.6026 -0.1774
 1661WAT      O 5066   1.446   1.973   1.833  0.2387  0.6224 -0.0492
 1661WAT     H1 5067   1.531   1.971   1.789  0.1681  0.4114 -0.1744
 1661WAT     H2 5068   1.448   1.898   1.893 -0.1472  0.1828 -0.5814
 1662WAT      O 5069   3.283   1.721   0.844  0.0317 -0.0119 -0.3843
 1662WAT     H1 5070   3.279   1.786   0.773 -0.7297 -1.5148 -1.7867
 1662WAT     H2 5071   3.191   1.706   0.868  0.2779  0.5073  1.0003
 1663WAT      O 5072   0.873   3.628   0.927 -0.6727  0.2225  0.3961
 1663WAT     H1 5073   0.830   3.714   0.920  1.5285  1.3657  0.0937
 1663WAT     H2 5074   0.949   3.645   0.983 -0.0001 -1.4756  0.0288
 1664WAT      O 5075   3.433   3.091   3.248  0.2083 -0.4558  0.5152
 1664WAT     H1 5076   3.463   3.177   3.221 -1.0811 -0.2039 -0.2287
 1664WAT     H2 5077   3.337   3.098   3.247  0.0894 -1.8003  0.7156
 1665WAT      O 5078   2.338   4.007   2.574 -0.2095 -0.1048 -0.1636
 1665WAT     H1 5079   2.360   4.099   2.560  2.1630 -0.5303  0.3229
 1665WAT     H2 5080   2.296   4.005   2.660  0.6066  0.4204  0.2581
 1666WAT      O 5081   1.844   0.459   3.418 -0.2195 -0.5620 -0.1176
 1666WAT     H1 5082   1.911   0.526   3.433 -1.9642  1.0962  0.6176
 1666WAT     H2 5083   1.786   0.465   3.494 -1.2068 -1.9578 -0.7197
 1667WAT      O 5084   1.545   0.732   3.680  0.8468 -0.5603 -0.3564
 1667WAT     H1 5085   1.508   0.663   3.625 -0.7007 -0.7222  0.8065
 1667WAT     H2 5086   1.637   0.709   3.689  0.1730 -3.1306  0.8664
 1668WAT      O 5087   3.554   3.129   1.426  0.3579 -0.3173  0.3265
 1668WAT     H1 5088   3.465   3.098   1.410  0.1298  0.5516 -0.2174
 1668WAT     H2 5089   3.545   3.191   1.498  1.0303 -2.4876  2.4065
 1669WAT      O 5090   1.563   2.360   1.760  0.2838 -0.0007  0.0704
 1669WAT     H1 5091   1.480   2.319   1.785  0.1182  0.8824  1.0236
 1669WAT     H2 5092   1.537   2.438   1.712  0.5790  0.0426 -0.0164
 1670WAT      O 5093   1.616   1.906   3.018  0.6921  0.1551  0.7351
 1670WAT     H1 5094   1.613   1.814   3.042 -0.8257 -0.1883 -0.6118
 1670WAT     H2 5095   1.564   1.950   3.085 -2.3423 -0.6160 -0.9293
 1671WAT      O 5096   1.583   3.844   2.016 -0.0707 -0.8359  0.0646
 1671WAT     H1 5097   1.541   3.930   2.013  0.3841 -0.5525  1.3802
 1671WAT     H2 5098   1.520   3.789   2.063 -0.7745 -1.4820 -1.5793
 1672WAT      O 5099   2.688   4.094   0.083 -0.3808 -0.4510 -0.3943
 1672WAT     H1 5100   2.676   4.176   0.131 -1.4514 -1.1358  0.5826
 1672WAT     H2 5101   2.637   4.105   0.003 -1.8807 -0.7290  0.4848
 1673WAT      O 5102   1.258   3.135   2.571 -0.3767 -0.7172  0.7018
 1673WAT     H1 5103   1.175   3.095   2.597 -0.6185 -0.2800  0.6066
 1673WAT     H2 5104   1.316   3.060   2.555 -0.6477 -1.0194  1.0967
 1674WAT      O 5105   3.473   3.191   0.223  0.1737 -0.0897 -0.1482
 1674WAT     H1 5106   3.490   3.146   0.140  1.1517  0.8960 -0.5002
 1674WAT     H2 5107   3.406   3.256   0.203 -0.7537 -0.9004  0.2145
 1675WAT      O 5108   0.191   1.525   1.503  0.2485  0.2176  0.0600
 1675WAT     H1 5109   0.272   1.554   1.544 -0.2435  1.3947  0.2228
 1675WAT     H2 5110   0.162   1.599   1.450 -0.6172 -0.2469 -0.1437
 1676WAT      O 5111   1.063   2.329   0.301  0.4772  0.3451 -0.6387
 1676WAT     H1 5112   1.063   2.423   0.280  0.7356  0.2929 -0.8900
 1676WAT     H2 5113   0.980   2.314   0.346  0.4556  0.7046 -0.5545
 1677WAT      O 5114   0.381   3.259   0.264  0.5179  0.2113  0.2422
 1677WAT     H1 5115   0.367   3.291   0.353  0.9944  0.6728  0.1550
 1677WAT     H2 5116   0.304   3.206   0.245  0.9394 -0.8548  1.3630
 1678WAT      O 5117   2.661   2.177   0.834  0.4717  0.3831 -0.3905
 1678WAT     H1 5118   2.707   2.170   0.917  0.0828  2.7888  0.1018
 1678WAT     H2 5119   2.660   2.088   0.799  0.8377 -0.6461  2.0581
 1679WAT      O 5120   1.974   2.348   1.487  0.2990  0.0754  0.3367
 1679WAT     H1 5121   1.905   2.295   1.527  1.3524 -1.6098  0.0300
 1679WAT     H2 5122   1.948   2.439   1.505 -0.7404 -0.5455  2.3062
 1680WAT      O 5123   0.709   2.403   0.872 -0.1082  0.2112 -0.4476
 1680WAT     H1 5124   0.732   2.350   0.796 -0.2642  0.9665 -1.0290
 1680WAT     H2 5125   0.623   2.440   0.852  0.1945  1.0552 -0.2649
 1681WAT      O 5126   0.745   3.645   2.124 -0.4141  0.3042  0.3082
 1681WAT     H1 5127   0.802   3.715   2.092 -0.9668 -0.6383 -3.2668
 1681WAT     H2 5128   0.657   3.672   2.096 -0.7742 -1.2614 -0.1558
 1682WAT      O 5129   0.802   3.657   3.221  0.4147  0.1225  0.0529
 1682WAT     H1 5130   0.736   3.612   3.169  0.3617  1.2546 -0.8972
 1682WAT     H2 5131   0.841   3.720   3.161 -0.2293  2.0814  1.5636
 1683WAT      O 5132   2.849   0.430   1.839  0.9741 -0.1527  0.2583
 1683WAT     H1 5133   2.938   0.463   1.826  0.6793  0.8774  0.7070
 1683WAT     H2 5134   2.794   0.490   1.788  0.6116 -1.3178 -0.7441
 1684WAT      O 5135   0.660   3.695   1.655 -0.5203 -0.3135  0.2681
 1684WAT     H1 5136   0.710   3.655   1.584  0.1610  0.5958  0.2233
 1684WAT     H2 5137   0.574   3.653   1.649 -1.6294  1.9628 -3.1964
 1685WAT      O 5138   2.175   1.627   3.729  0.9604  0.0292 -0.1743
 1685WAT     H1 5139   2.266   1.613   3.755  1.1747 -2.1456 -1.7921
 1685WAT     H2 5140   2.124   1.575   3.792  1.1297 -1.4743 -1.2391
 1686WAT      O 5141   0.750   2.572   2.859 -0.2036 -0.0808 -0.1241
 1686WAT     H1 5142   0.711   2.502   2.910  1.8013  0.7586  2.8331
 1686WAT     H2 5143   0.844   2.554   2.862  0.0805  0.3009 -3.2513
 1687WAT      O 5144   0.767   2.133   1.718  0.5330  0.0588  0.4565
 1687WAT     H1 5145   0.727   2.115   1.634  2.4623 -0.0704 -0.4974
 1687WAT     H2 5146   0.857   2.159   1.697  1.8093 -2.1872  2.5461
 1688WAT      O 5147   0.158   0.740   2.021 -0.1222 -0.0393  0.0996
 1688WAT     H1 5148   0.076   0.696   1.999 -0.9486  1.4179  0.1478
 1688WAT     H2 5149   0.132   0.828   2.049  1.5403  0.8543 -0.9688
 1689WAT      O 5150   3.500   3.571   0.301 -0.1334  0.1789  0.3464
 1689WAT     H1 5151   3.595   3.572   0.310 -0.0790  0.3646 -0.2242
 1689WAT     H2 5152   3.478   3.659   0.271 -0.3945 -0.1512 -0.4420
 1690WAT      O 5153   3.260   3.563   2.535  0.5183 -0.1262  0.1648
 1690WAT     H1 5154   3.243   3.636   2.476  0.4975  0.0399  0.3732
 1690WAT     H2 5155   3.177   3.516   2.539 -0.1552  1.0629  1.7035
 1691WAT      O 5156   2.630   1.233   1.198 -0.0789 -0.0007  0.7698
 1691WAT     H1 5157   2.627   1.251   1.104  0.0508 -2.7165  0.1750
 1691WAT     H2 5158   2.545   1.264   1.231 -0.3647  0.4236 -0.3310
 1692WAT      O 5159   2.876   2.948   0.153  0.4643  0.1042  0.0677
 1692WAT     H1 5160   2.838   2.954   0.066  0.6820 -0.4808 -0.0714
 1692WAT     H2 5161   2.825   3.010   0.206  0.4209  0.5601 -0.5001
 1693WAT      O 5162   0.647   3.572   1.170 -0.0278 -0.4083 -0.7902
 1693WAT     H1 5163   0.588   3.532   1.106  0.2722 -0.5022 -1.0068
 1693WAT     H2 5164   0.699   3.634   1.120  0.4574 -0.7435 -0.7028
 1694WAT      O 5165   0.743   3.147   2.918  0.1089 -0.0881 -0.0786
 1694WAT     H1 5166   0.665   3.115   2.873  0.3267 -2.1138  0.8539
 1694WAT     H2 5167   0.724   3.239   2.937 -0.7366  0.3278 -2.5666
 1695WAT      O 5168   2.212   3.470   3.724  0.4536  0.1411  0.0320
 1695WAT     H1 5169   2.243   3.381   3.738 -0.6987 -0.3114 -0.1597
 1695WAT     H2 5170   2.212   3.509   3.812  0.5907 -0.1697  0.1725
 1696WAT      O 5171   0.408   3.888   2.282  0.7493  0.1491  0.3450
 1696WAT     H1 5172   0.498   3.919   2.293  1.6596 -1.8459 -0.9078
 1696WAT     H2 5173   0.406   3.805   2.330 -0.1244 -0.2876 -0.4163
 1697WAT      O 5174   3.124   3.046   1.829  0.2692  0.5205  0.3391
 1697WAT     H1 5175   3.216   3.042   1.802 -0.0315 -1.1554 -0.5634
 1697WAT     H2 5176   3.120   3.122   1.887  1.6871  2.1810 -1.5913
 1698WAT      O 5177   1.692   2.686   2.217  0.2152 -0.0214  0.3387
 1698WAT     H1 5178   1.695   2.648   2.305 -0.7773 -1.4048 -0.1964
 1698WAT     H2 5179   1.751   2.761   2.222  1.0006 -0.6927  1.8876
 1699WAT      O 5180   2.147   1.256   3.326 -0.1995  0.3535  0.7195
 1699WAT     H1 5181   2.115   1.345   3.344 -1.3301  0.0754  0.1766
 1699WAT     H2 5182   2.075   1.214   3.279 -0.0573 -1.1505  1.7696
 1700WAT      O 5183   1.284   0.106   3.612  0.4200  0.3696  0.7309
 1700WAT     H1 5184   1.335   0.150   3.681  0.2840  1.8584 -0.0800
 1700WAT     H2 5185   1.248   0.178   3.560 -0.5783 -0.7130 -0.1082
 1701WAT      O 5186   2.695   1.158   0.484  0.6307  0.3273 -0.5184
 1701WAT     H1 5187   2.692   1.068   0.452  0.6336  0.2886 -0.4125
 1701WAT     H2 5188   2.630   1.205   0.432  1.0813  0.4071 -1.0119
 1702WAT      O 5189   2.883   1.839   2.908  0.2142 -0.0290 -0.4487
 1702WAT     H1 5190   2.874   1.840   3.004 -0.5168  0.2154 -0.5111
 1702WAT     H2 5191   2.894   1.931   2.885 -0.2147 -0.0306 -0.6523
 1703WAT      O 5192   0.210   2.495   0.719 -0.2635  0.0184 -0.3580
 1703WAT     H1 5193   0.206   2.589   0.702  0.2713 -0.2079 -1.9841
 1703WAT     H2 5194   0.169   2.455   0.642  0.6405 -1.1059 -0.2964
 1704WAT      O 5195   1.103   2.612   0.082  0.0981 -0.0167 -0.3686
 1704WAT     H1 5196   1.026   2.566   0.049 -1.3263  1.8260  0.2026
 1704WAT     H2 5197   1.136   2.661   0.006 -1.2345  1.6558  0.0596
 1705WAT      O 5198   3.077   2.214   2.382  0.3872  0.2464 -0.1022
 1705WAT     H1 5199   3.047   2.142   2.325 -0.0285  0.8188 -0.6222
 1705WAT     H2 5200   3.077   2.291   2.325  0.6679  0.6931  0.4936
 1706WAT      O 5201   1.681   3.049   2.465  0.2103  0.0787  0.0901
 1706WAT     H1 5202   1.628   3.067   2.388 -0.4451 -0.6161  0.3622
 1706WAT     H2 5203   1.649   2.964   2.497  1.8976 -0.6731 -0.0889
 1707WAT      O 5204   0.581   3.705   0.756  0.5211 -0.6293 -0.8208
 1707WAT     H1 5205   0.562   3.791   0.792  0.6877 -0.5822 -0.8456
 1707WAT     H2 5206   0.532   3.644   0.812 -0.1201 -0.4689 -1.2002
 1708WAT      O 5207   1.855   2.254   0.130  0.0079 -0.1289 -0.1106
 1708WAT     H1 5208   1.870   2.334   0.180 -2.5301 -1.5064  3.2640
 1708WAT     H2 5209   1.917   2.190   0.166 -1.8247 -1.1281  1.4980
 1709WAT      O 5210   2.965   3.591   3.677 -0.5465 -0.1099 -0.3174
 1709WAT     H1 5211   2.985   3.588   3.583  0.0846 -0.3669 -0.1822
 1709WAT     H2 5212   3.048   3.618   3.718  0.5880 -4.2428  0.5559
 1710WAT      O 5213   3.234   2.903   0.109  0.2574  0.0439  0.0454
 1710WAT     H1 5214   3.284   2.946   0.040 -2.1278  3.9785  0.5036
 1710WAT     H2 5215   3.172   2.847   0.062 -1.3404  2.6637 -1.1498
 1711WAT      O 5216   1.526   0.400   0.934  0.2308 -0.3982 -0.1087
 1711WAT     H1 5217   1.546   0.325   0.990  0.3590 -0.0180  0.3617
 1711WAT     H2 5218   1.610   0.427   0.899  0.2195 -0.3095 -0.0671
 1712WAT      O 5219   2.943   1.908   1.192  0.0949 -0.0842  0.6505
 1712WAT     H1 5220   2.853   1.923   1.220  0.4635  0.6019  1.5092
 1712WAT     H2 5221   2.962   1.818   1.219 -1.2677 -1.3248 -2.1732
 1713WAT      O 5222   2.098   1.489   3.106  0.6273  0.1301  0.2504
 1713WAT     H1 5223   2.065   1.423   3.166  1.2498  0.8440  1.4094
 1713WAT     H2 5224   2.037   1.486   3.032 -1.0349  0.2377  1.5494
 1714WAT      O 5225   1.055   3.032   2.765 -0.5196 -0.4814  0.3176
 1714WAT     H1 5226   1.050   3.051   2.858  0.4723  0.4147  0.1974
 1714WAT     H2 5227   0.966   3.004   2.742 -0.7646 -0.7337  1.5265
 1715WAT      O 5228   1.314   0.933   0.189  0.9206 -0.1008 -0.5594
 1715WAT     H1 5229   1.401   0.961   0.218  0.3828  2.2669 -0.9517
 1715WAT     H2 5230   1.330   0.876   0.115  2.1485 -0.8426  0.2491
 1716WAT      O 5231   0.372   0.984   0.673 -0.2230  0.3843  0.0582
 1716WAT     H1 5232   0.466   0.991   0.693 -0.4169  0.9443  0.8407
 1716WAT     H2 5233   0.368   0.970   0.579  0.6367  0.6221 -0.0196
 1717WAT      O 5234   1.666   2.417   2.903 -0.0494  0.1137 -0.6788
 1717WAT     H1 5235   1.674   2.393   2.995 -1.7141  0.1265 -0.5078
 1717WAT     H2 5236   1.733   2.365   2.859  0.0933 -0.6472  0.4107
 1718WAT      O 5237   1.187   2.606   2.366  0.0155  0.1492  0.1434
 1718WAT     H1 5238   1.185   2.701   2.373  0.1114  0.1056  0.8605
 1718WAT     H2 5239   1.175   2.588   2.273 -0.5711  0.8410  0.0802
 1719WAT      O 5240   0.538   3.144   2.331 -0.1540  0.3964 -0.0256
 1719WAT     H1 5241   0.546   3.095   2.249  0.8127  1.2897 -0.5035
 1719WAT     H2 5242   0.548   3.236   2.305 -1.6386  0.8426  0.8772
 1720WAT      O 5243   3.522   2.657   0.298 -0.1415  0.0001 -0.0329
 1720WAT     H1 5244   3.614   2.644   0.272 -0.0726  0.7194 -0.1691
 1720WAT     H2 5245   3.526   2.674   0.392 -0.1316  0.0520 -0.0427
 1721WAT      O 5246   3.550   0.963   0.785 -0.1326 -0.4766  0.0114
 1721WAT     H1 5247   3.611   0.911   0.732  1.3821  1.8496 -0.6935
 1721WAT     H2 5248   3.506   1.020   0.722  0.9727  1.6441  1.0425
 1722WAT      O 5249   1.385   1.687   3.227 -0.5318  0.4569 -0.1433
 1722WAT     H1 5250   1.329   1.705   3.151 -0.7893  0.1906 -0.0186
 1722WAT     H2 5251   1.375   1.764   3.282 -0.1833  0.7434 -0.4732
 1723WAT      O 5252   2.781   0.875   2.714 -0.1974 -0.0506  0.4160
 1723WAT     H1 5253   2.803   0.789   2.677  0.4939 -0.6050  2.0259
 1723WAT     H2 5254   2.714   0.856   2.779 -1.6198  0.9528 -0.6997
 1724WAT      O 5255   2.789   0.853   3.715 -0.3179  0.4262 -0.1765
 1724WAT     H1 5256   2.728   0.925   3.731 -0.5120  0.5008 -1.1852
 1724WAT     H2 5257   2.738   0.774   3.731 -0.1101  0.4973  0.9160
 1725WAT      O 5258   3.492   1.186   0.297 -0.1502  0.4755  0.1532
 1725WAT     H1 5259   3.496   1.281   0.302  0.8186  0.5065 -0.9873
 1725WAT     H2 5260   3.552   1.156   0.365  2.9229  0.7710 -2.2268
 1726WAT      O 5261   0.580   0.175   1.886 -0.4878 -0.1303 -0.4086
 1726WAT     H1 5262   0.487   0.164   1.870 -0.4628  1.6070 -2.0490
 1726WAT     H2 5263   0.605   0.253   1.835  1.2485  1.2823  2.3334
 1727WAT      O 5264   0.404   2.293   1.743 -0.0279  0.0727  0.6800
 1727WAT     H1 5265   0.418   2.286   1.648  0.5546 -1.3956  0.8519
 1727WAT     H2 5266   0.366   2.380   1.755 -0.4035  0.1619 -0.9358
 1728WAT      O 5267   1.361   2.660   3.640  0.0913  0.6624  0.3153
 1728WAT     H1 5268   1.396   2.592   3.697  1.0010  0.5000 -0.4056
 1728WAT     H2 5269   1.269   2.639   3.630 -0.0522  0.6216  1.6070
 1729WAT      O 5270   2.640   1.895   2.729 -0.3291 -0.2099  0.6733
 1729WAT     H1 5271   2.638   1.875   2.636 -1.0983  0.1438  0.6051
 1729WAT     H2 5272   2.724   1.940   2.742  0.6091 -1.8645  0.5099
 1730WAT      O 5273   3.656   1.531   2.175 -0.0313  0.2896  0.0163
 1730WAT     H1 5274   3.644   1.625   2.190  0.7034  0.2354  0.9622
 1730WAT     H2 5275   3.582   1.507   2.118 -0.9635  1.1796  0.8118
 1731WAT      O 5276   2.694   3.714   1.824  0.0538 -0.0499  0.1479
 1731WAT     H1 5277   2.786   3.734   1.841  0.6707 -2.8344  0.4598
 1731WAT     H2 5278   2.647   3.744   1.902  1.0719 -0.8670  1.1035
 1732WAT      O 5279   2.036   0.462   2.151  0.1982 -0.2146 -0.2170
 1732WAT     H1 5280   2.108   0.525   2.146  1.4123 -1.6116 -1.1252
 1732WAT     H2 5281   2.068   0.394   2.210 -0.2331 -1.0075 -0.8815
 1733WAT      O 5282   0.665   4.077   2.320  0.1705 -0.4389  0.3915
 1733WAT     H1 5283   0.728   4.148   2.311 -0.8205  0.6783  1.7471
 1733WAT     H2 5284   0.648   4.048   2.230  0.7037  0.9566 -0.1840
 1734WAT      O 5285   2.186   3.643   2.143  0.4582  0.1251 -0.3646
 1734WAT     H1 5286   2.207   3.652   2.236 -0.2688  0.3231 -0.2141
 1734WAT     H2 5287   2.154   3.729   2.118 -0.1544 -0.1680 -0.5904
 1735WAT      O 5288   0.648   3.072   3.703 -0.0863  0.1289  0.3330
 1735WAT     H1 5289   0.582   3.012   3.667  0.3175 -0.8612  1.2113
 1735WAT     H2 5290   0.701   3.097   3.627  0.4406 -1.5316  0.1292
 1736WAT      O 5291   1.393   3.948   0.992 -0.2102 -0.5489 -0.2626
 1736WAT     H1 5292   1.469   4.004   1.010 -0.1184 -0.8910  0.4260
 1736WAT     H2 5293   1.321   4.009   0.979 -0.6116 -0.2668  2.6546
 1737WAT      O 5294   2.270   0.648   1.557  0.3102 -0.5495  0.3710
 1737WAT     H1 5295   2.270   0.743   1.548  0.8692 -0.6764 -1.1802
 1737WAT     H2 5296   2.301   0.632   1.647  2.0100  0.7008  0.0504
 1738WAT      O 5297   1.824   3.923   1.967 -0.1569 -0.1668  0.3395
 1738WAT     H1 5298   1.811   3.907   1.874 -1.3568  0.0176  0.4561
 1738WAT     H2 5299   1.744   3.890   2.008 -0.5687  1.6418  1.0784
 1739WAT      O 5300   1.212   1.721   2.906  0.0418 -0.3754  0.3289
 1739WAT     H1 5301   1.295   1.686   2.937  0.5390  1.3007  0.9691
 1739WAT     H2 5302   1.217   1.711   2.811 -0.1387 -2.5989  0.4968
 1740WAT      O 5303   2.902   3.207   1.506  0.0335  0.0685  0.6177
 1740WAT     H1 5304   2.871   3.260   1.432  0.9105 -0.3688 -0.0898
 1740WAT     H2 5305   2.823   3.184   1.555 -0.6528 -0.2308 -0.5933
 1741WAT      O 5306   1.868   0.329   2.760  0.3379  0.0102  0.1835
 1741WAT     H1 5307   1.780   0.301   2.784  0.5977 -0.0480  1.1309
 1741WAT     H2 5308   1.856   0.402   2.701 -0.3477  0.2823  0.6552
 1742WAT      O 5309   1.832   1.121   2.232 -0.3715  0.6819 -0.2915
 1742WAT     H1 5310   1.875   1.200   2.265 -1.6320  1.1679  0.2711
 1742WAT     H2 5311   1.739   1.136   2.251 -0.7660 -0.3964 -1.3030
 1743WAT      O 5312   3.287   0.727   0.457  0.2039  0.0950 -0.0947
 1743WAT     H1 5313   3.265   0.790   0.526  1.3660 -1.1739  1.5035
 1743WAT     H2 5314   3.335   0.780   0.393  0.7591  0.9530  0.9837
 1744WAT      O 5315   0.017   0.317   3.598 -0.1676 -0.4276 -0.4312
 1744WAT     H1 5316  -0.057   0.265   3.632 -0.2627 -0.9765 -1.4612
 1744WAT     H2 5317   0.093   0.262   3.612  0.0275  0.0128  0.3428
 1745WAT      O 5318   2.046   1.256   3.695 -0.9377  0.1022  0.6003
 1745WAT     H1 5319   2.071   1.237   3.604 -0.8637 -1.2189  0.8803
 1745WAT     H2 5320   2.129   1.275   3.738 -1.0316  1.3452  0.2748
 1746WAT      O 5321   1.781   3.926   3.388 -0.9720  0.1870  0.7876
 1746WAT     H1 5322   1.851   3.884   3.339  1.5310  3.3683  1.3347
 1746WAT     H2 5323   1.781   3.881   3.473  0.8025  0.4907  0.9698
 1747WAT      O 5324   3.348   3.959   3.750  0.2982  0.5670  0.4979
 1747WAT     H1 5325   3.267   3.964   3.700  0.9167  0.9886 -0.5026
 1747WAT     H2 5326   3.326   3.993   3.836 -0.2382  2.1722 -0.2376
 1748WAT      O 5327   0.531   3.409   2.824  0.1298  0.1530  0.3145
 1748WAT     H1 5328   0.489   3.490   2.796 -2.6801 -0.5587  2.0599
 1748WAT     H2 5329   0.523   3.350   2.749  0.1311  0.7630 -0.1703
 1749WAT      O 5330   0.961   3.506   3.454 -0.1973 -0.3193 -0.2238
 1749WAT     H1 5331   0.871   3.523   3.427  0.0128  0.2458 -0.5814
 1749WAT     H2 5332   1.014   3.529   3.378  0.3795  0.9033  0.5152
 1750WAT      O 5333   3.528   0.278   3.254  0.0799 -0.5530 -0.1911
 1750WAT     H1 5334   3.598   0.254   3.315  1.1750  0.6407 -0.9347
 1750WAT     H2 5335   3.489   0.194   3.229 -0.1529 -1.1153  1.8105
 1751WAT      O 5336   0.563   1.316   2.069  0.8066 -0.5031 -0.6699
 1751WAT     H1 5337   0.539   1.409   2.060  0.0097 -0.7491 -1.2120
 1751WAT     H2 5338   0.648   1.308   2.026  0.1390 -0.3311 -2.0763
 1752WAT      O 5339   2.247   3.272   0.142 -0.0249 -0.4819  0.6718
 1752WAT     H1 5340   2.253   3.332   0.216  1.9246 -0.4867  0.5619
 1752WAT     H2 5341   2.169   3.220   0.160  0.4646 -0.5621  2.7940
 1753WAT      O 5342   2.101   3.069   0.694 -0.1460  0.5442  0.3345
 1753WAT     H1 5343   2.037   3.005   0.663 -1.8460  2.3122  0.0720
 1753WAT     H2 5344   2.168   3.016   0.738 -1.3276 -1.4219 -0.1268
 1754WAT      O 5345   1.271   0.935   2.112  0.0789 -0.1081 -0.1644
 1754WAT     H1 5346   1.358   0.961   2.081  0.7809 -0.9277  1.0513
 1754WAT     H2 5347   1.253   0.853   2.067  0.4826 -0.5733  0.5127
 1755WAT      O 5348   0.376   2.098   2.980 -0.0526  0.0854  0.1312
 1755WAT     H1 5349   0.295   2.139   2.951 -1.1436 -2.0935 -0.1015
 1755WAT     H2 5350   0.369   2.098   3.076  0.7020  1.7511  0.2339
 1756WAT      O 5351   2.482   0.347   1.879  0.4716  0.2422 -0.0371
 1756WAT     H1 5352   2.468   0.333   1.972 -0.7663  1.5538  0.0114
 1756WAT     H2 5353   2.447   0.268   1.837 -2.2288  1.0640  0.4483
 1757WAT      O 5354   2.387   2.881   1.709  0.4639  0.4639 -0.7497
 1757WAT     H1 5355   2.473   2.886   1.668 -0.1188  0.3877 -2.0405
 1757WAT     H2 5356   2.325   2.887   1.635 -0.6170 -0.3805  0.0511
 1758WAT      O 5357   3.674   1.635   0.073 -0.0111 -0.6019 -0.5023
 1758WAT     H1 5358   3.649   1.649  -0.018  0.6619 -0.0168 -0.6011
 1758WAT     H2 5359   3.626   1.702   0.122 -1.1944 -1.5621 -0.2715
 1759WAT      O 5360   2.659   0.417   3.060 -0.2697 -0.0313 -0.1308
 1759WAT     H1 5361   2.598   0.437   3.131  0.1234 -0.7517  0.4290
 1759WAT     H2 5362   2.728   0.366   3.102  0.9225  1.0849 -0.6671
 1760WAT      O 5363   0.191   2.565   3.737  0.2271  0.1445  0.2070
 1760WAT     H1 5364   0.141   2.634   3.694 -1.1919 -0.4391  0.8817
 1760WAT     H2 5365   0.126   2.513   3.783  1.4143 -0.9051  0.7525
 1761WAT      O 5366   1.274   0.094   2.419  0.2443  0.3210  0.1290
 1761WAT     H1 5367   1.245   0.022   2.476  0.4651  0.4901  0.4578
 1761WAT     H2 5368   1.364   0.112   2.447  0.4238  0.2736 -0.4095
 1762WAT      O 5369   2.648   3.139   1.650  0.4109 -0.4051  0.3339
 1762WAT     H1 5370   2.670   3.130   1.742 -0.1449 -3.3399  0.2795
 1762WAT     H2 5371   2.555   3.166   1.650  0.9779  1.7772  0.5429
 1763WAT      O 5372   0.993   3.103   0.418 -0.4355  0.1095  0.3668
 1763WAT     H1 5373   1.066   3.148   0.376 -1.1319 -0.2023 -1.2639
 1763WAT     H2 5374   0.987   3.144   0.504  1.7288  0.0267  0.6124
 1764WAT      O 5375   0.502   2.286   2.520  0.0902 -0.2126 -0.2145
 1764WAT     H1 5376   0.413   2.250   2.521 -0.2111  0.5183  0.0890
 1764WAT     H2 5377   0.528   2.287   2.613 -0.2650  1.1943 -0.1182
 1765WAT      O 5378   0.102   3.136   0.802 -0.1296 -0.1237 -0.0512
 1765WAT     H1 5379   0.018   3.093   0.818 -0.0073 -0.4153 -0.1930
 1765WAT     H2 5380   0.126   3.109   0.713  0.5801 -0.8087  0.3395
 1766WAT      O 5381   0.706   1.748   0.112 -0.5941  0.6161 -0.3287
 1766WAT     H1 5382   0.663   1.662   0.109 -1.1881  0.8882  0.1577
 1766WAT     H2 5383   0.753   1.749   0.195  0.3253  0.3427 -0.8334
 1767WAT      O 5384   0.940   2.496   2.469  0.5047  0.2549  0.3308
 1767WAT     H1 5385   0.937   2.579   2.516 -0.0629  0.3356  0.1589
 1767WAT     H2 5386   1.012   2.507   2.407 -0.6047  1.2471 -0.8354
 1768WAT      O 5387   2.550   0.355   1.437  0.6966 -0.0039  0.5749
 1768WAT     H1 5388   2.560   0.282   1.498  1.2484 -0.4539 -0.0416
 1768WAT     H2 5389   2.636   0.366   1.398  0.1928 -0.1907 -0.6352
 1769WAT      O 5390   0.266   0.074   2.454 -0.3277  0.0516 -0.2233
 1769WAT     H1 5391   0.250   0.026   2.535 -0.2099 -0.2816 -0.3940
 1769WAT     H2 5392   0.360   0.087   2.451 -0.2985 -0.1993 -0.4510
 1770WAT      O 5393   1.974   1.528   0.597  0.3178  0.3860  0.3707
 1770WAT     H1 5394   2.064   1.524   0.629  0.6064 -0.7748 -0.5106
 1770WAT     H2 5395   1.927   1.464   0.649  0.0183  0.9291  0.7700
 1771WAT      O 5396   2.398   1.877   0.843 -0.2052 -0.2013  0.0798
 1771WAT     H1 5397   2.459   1.859   0.915  1.5154 -0.3274 -1.3335
 1771WAT     H2 5398   2.360   1.962   0.864  2.2272  1.0163 -0.0928
 1772WAT      O 5399   2.890   2.676   0.214 -0.5266 -0.1584  0.0696
 1772WAT     H1 5400   2.883   2.770   0.202 -1.7781 -0.3846 -1.2058
 1772WAT     H2 5401   2.969   2.651   0.165 -0.7850  0.0860 -0.4746
 1773WAT      O 5402   0.592   1.876   3.859  0.4306 -0.8693  0.1925
 1773WAT     H1 5403   0.622   1.817   3.929 -1.3817  0.0987  1.9035
 1773WAT     H2 5404   0.501   1.849   3.843  0.0330  0.5033  0.0099
 1774WAT      O 5405   2.330   1.107   1.553 -0.3318 -0.0523  0.2374
 1774WAT     H1 5406   2.259   1.044   1.567 -0.9929  0.4864 -0.5442
 1774WAT     H2 5407   2.285   1.190   1.536  0.5138  0.5582  0.8771
 1775WAT      O 5408   0.218   0.849   2.877  0.1236 -0.2337 -0.1498
 1775WAT     H1 5409   0.153   0.918   2.866  0.9939  0.6020 -0.2347
 1775WAT     H2 5410   0.177   0.786   2.936 -0.3864  0.7695  0.5960
 1776WAT      O 5411   3.251   3.613   0.934  0.0959 -0.1792 -0.6346
 1776WAT     H1 5412   3.327   3.671   0.940  1.1492 -1.6764  1.5679
 1776WAT     H2 5413   3.181   3.662   0.979  0.8308 -0.3425  0.7363
 1777WAT      O 5414   2.907   4.000   2.787 -0.5776 -0.2859 -0.2248
 1777WAT     H1 5415   2.859   3.949   2.852  0.5851 -1.2125 -0.0471
 1777WAT     H2 5416   2.947   4.071   2.836 -0.4507 -0.4549 -0.0809
 1778WAT      O 5417   3.334   0.646   2.146  0.6279 -0.2348  0.4647
 1778WAT     H1 5418   3.358   0.674   2.235  0.5039 -1.3986  0.8793
 1778WAT     H2 5419   3.244   0.677   2.135  0.5819 -0.2389  0.8133
 1779WAT      O 5420   3.293   0.355   0.553  0.2950  0.2237  0.2202
 1779WAT     H1 5421   3.362   0.369   0.618 -0.6469 -0.6978  1.4912
 1779WAT     H2 5422   3.212   0.376   0.600 -0.2973  1.7419 -1.3781
 1780WAT      O 5423   1.815   1.873   2.251  0.2623  0.1758  0.1797
 1780WAT     H1 5424   1.803   1.816   2.176  0.1733  2.3789 -1.6035
 1780WAT     H2 5425   1.745   1.938   2.243  0.6306  0.8312  1.8211
 1781WAT      O 5426   1.320   3.522   1.885  0.1357  0.1949 -0.7437
 1781WAT     H1 5427   1.322   3.606   1.840 -0.1860  0.2122 -0.7255
 1781WAT     H2 5428   1.406   3.483   1.867 -0.1400  0.0155 -1.7171
 1782WAT      O 5429   0.213   2.820   1.317  0.0622 -0.5510 -0.1748
 1782WAT     H1 5430   0.151   2.860   1.256  0.6051  2.2999  0.9559
 1782WAT     H2 5431   0.284   2.787   1.263  0.0752  1.0231 -1.1595
 1783WAT      O 5432   2.034   0.806   2.432  0.6847 -0.3632  0.5092
 1783WAT     H1 5433   2.087   0.865   2.486 -0.7552  0.3887  1.1538
 1783WAT     H2 5434   2.050   0.835   2.342  3.1579 -1.6684  0.4506
 1784WAT      O 5435   0.320   1.814   1.954  0.2460 -0.1503  0.1399
 1784WAT     H1 5436   0.378   1.830   1.879  0.6352 -1.2814  0.1918
 1784WAT     H2 5437   0.359   1.740   2.000 -1.1258 -0.8162  0.2912
 1785WAT      O 5438   1.696   0.907   1.109  0.2894 -0.1437  0.3731
 1785WAT     H1 5439   1.687   0.904   1.014 -0.6728  0.4173  0.4342
 1785WAT     H2 5440   1.606   0.898   1.142  0.4075  1.2982  1.1763
 1786WAT      O 5441   2.251   0.173   3.050 -0.2933 -0.0190 -0.1097
 1786WAT     H1 5442   2.173   0.229   3.041  0.3674  0.6724 -1.8821
 1786WAT     H2 5443   2.284   0.193   3.138 -0.9896  1.1750 -0.0997
 1787WAT      O 5444   0.526   1.536   2.691  0.1347 -0.8237  0.5524
 1787WAT     H1 5445   0.470   1.494   2.625 -0.5699 -0.5075  0.9382
 1787WAT     H2 5446   0.467   1.593   2.739  1.3340  1.8119 -0.9114
 1788WAT      O 5447   0.228   1.929   2.227 -0.5247  0.2956  0.5638
 1788WAT     H1 5448   0.318   1.942   2.257 -0.8402  2.4958  0.7738
 1788WAT     H2 5449   0.224   1.976   2.144 -1.2770 -0.5155  0.1307
 1789WAT      O 5450   2.687   1.834   3.594 -0.3103  0.3539 -0.3793
 1789WAT     H1 5451   2.710   1.812   3.504  0.7532  1.2003 -0.3356
 1789WAT     H2 5452   2.614   1.776   3.615  0.5056 -1.0323 -1.2218
 1790WAT      O 5453   0.401   2.719   1.136 -0.0771  0.1290 -0.4225
 1790WAT     H1 5454   0.444   2.709   1.051  0.3049  1.2631 -0.3671
 1790WAT     H2 5455   0.350   2.638   1.146 -0.0624 -0.0503 -1.6862
 1791WAT      O 5456   2.161   2.726   0.841  0.4303  0.1671  0.3339
 1791WAT     H1 5457   2.104   2.739   0.765  1.9719  0.5960 -0.7908
 1791WAT     H2 5458   2.211   2.808   0.848  0.6476 -0.0440  1.5400
 1792WAT      O 5459   3.558   3.618   2.484  0.0260  0.1221 -0.3612
 1792WAT     H1 5460   3.585   3.535   2.446  2.2737 -0.1892  1.7176
 1792WAT     H2 5461   3.464   3.608   2.499  0.1301 -1.7762 -0.7896
 1793WAT      O 5462   0.622   1.984   3.060  0.2348  0.3945 -0.3451
 1793WAT     H1 5463   0.592   1.936   3.138  1.5631  0.3696  0.1745
 1793WAT     H2 5464   0.542   2.019   3.022 -0.9419 -2.7827 -1.1615
 1794WAT      O 5465   1.813   3.548   2.938  0.5232 -0.2869 -0.6254
 1794WAT     H1 5466   1.722   3.520   2.930 -0.0753  1.1106  0.7015
 1794WAT     H2 5467   1.836   3.530   3.029  1.8221 -1.2490 -1.1168
 1795WAT      O 5468   0.470   1.623   2.076 -0.1425 -1.0006 -0.1125
 1795WAT     H1 5469   0.528   1.690   2.038  2.4197 -2.4193  1.0208
 1795WAT     H2 5470   0.453   1.654   2.165 -0.2808 -1.0769 -0.1133
 1796WAT      O 5471   0.605   4.045   1.308 -0.4014  0.1781  0.1286
 1796WAT     H1 5472   0.518   4.076   1.333 -1.1070  1.0291 -2.9790
 1796WAT     H2 5473   0.663   4.119   1.327 -0.5174  0.0275  1.1279
 1797WAT      O 5474   2.812   0.148   0.714  0.3851 -0.4909 -0.1672
 1797WAT     H1 5475   2.825   0.217   0.649 -1.3496 -0.1449 -0.1978
 1797WAT     H2 5476   2.767   0.192   0.786 -1.7225 -1.7611 -0.6284
 1798WAT      O 5477   2.004   0.065   0.940 -0.2595  0.5767 -0.6354
 1798WAT     H1 5478   2.081   0.084   0.886 -0.1722  2.0119 -0.0473
 1798WAT     H2 5479   2.021  -0.023   0.975  1.6975  1.3073  0.4223
 1799WAT      O 5480   1.116   0.718   3.535  0.1730  0.0099  0.4361
 1799WAT     H1 5481   1.128   0.770   3.456  0.0129  0.5925  0.7869
 1799WAT     H2 5482   1.131   0.627   3.507 -1.5627  0.0073 -0.6446
 1800WAT      O 5483   2.372   3.076   1.921 -0.4115  0.4375  0.1062
 1800WAT     H1 5484   2.405   3.000   1.873  0.7412  1.1055 -0.1997
 1800WAT     H2 5485   2.318   3.039   1.990  0.1103 -0.6567 -0.0520
 1801WAT      O 5486   2.684   2.800   1.885 -0.1149 -0.1122 -0.5911
 1801WAT     H1 5487   2.771   2.813   1.922  0.2377 -1.5590 -0.8527
 1801WAT     H2 5488   2.624   2.844   1.946  0.7979  1.1914 -0.5850
 1802WAT      O 5489   3.189   3.627   3.815 -0.2172  0.0452  0.3399
 1802WAT     H1 5490   3.281   3.643   3.835 -0.1720  1.2716 -0.7217
 1802WAT     H2 5491   3.146   3.625   3.900  0.8390 -1.0013  0.8827
 1803WAT      O 5492   2.435   2.666   1.464  0.2645 -0.1979  0.0286
 1803WAT     H1 5493   2.501   2.603   1.494  1.8341  1.8647  1.2021
 1803WAT     H2 5494   2.376   2.675   1.539 -0.7136 -1.1468 -0.5941
 1804WAT      O 5495   1.997   3.149   0.159  0.0466  0.5916 -0.3325
 1804WAT     H1 5496   1.940   3.116   0.229  3.0594  0.3907  2.2400
 1804WAT     H2 5497   2.022   3.071   0.110  0.7696  0.1616  0.6865
 1805WAT      O 5498   1.720   2.339   3.142  0.0145 -0.2497  0.6068
 1805WAT     H1 5499   1.797   2.360   3.194 -0.9792  1.1391  1.6126
 1805WAT     H2 5500   1.647   2.346   3.204 -1.1399  0.6319 -0.7801
 1806WAT      O 5501   2.573   3.886   3.304 -1.0231 -0.1338 -0.2728
 1806WAT     H1 5502   2.522   3.952   3.257  1.4497  1.6100 -0.7064
 1806WAT     H2 5503   2.653   3.876   3.253 -0.8061 -2.6699  0.4300
 1807WAT      O 5504   1.613   0.011   0.986  0.1962 -0.0410 -0.1119
 1807WAT     H1 5505   1.645   0.038   0.900  0.7777 -1.7436 -0.4680
 1807WAT     H2 5506   1.672  -0.060   1.012 -1.4351 -1.1937  0.6151
 1808WAT      O 5507   0.618   2.397   3.659 -0.1193 -0.4123  0.1739
 1808WAT     H1 5508   0.658   2.359   3.737  1.3471  1.6799  0.5514
 1808WAT     H2 5509   0.683   2.384   3.590 -0.0124  0.4674  0.0899
 1809WAT      O 5510   1.423   4.091   1.971  0.4062 -0.0499  0.2097
 1809WAT     H1 5511   1.342   4.103   1.920  0.2282 -0.7430  0.3131
 1809WAT     H2 5512   1.447   4.179   2.000 -0.0593  0.2199 -0.2118
 1810WAT      O 5513   3.065   0.733   3.509  0.1677  0.3265 -0.0510
 1810WAT     H1 5514   3.074   0.639   3.529  0.8591  0.4736  0.3764
 1810WAT     H2 5515   3.060   0.737   3.414  0.6417 -0.1094 -0.0979
 1811WAT      O 5516   2.731   0.868   1.995  0.3598 -0.5569 -0.6136
 1811WAT     H1 5517   2.809   0.818   1.971 -0.0705 -2.8675  2.2163
 1811WAT     H2 5518   2.658   0.812   1.969 -0.1705 -0.9744  1.5578
 1812WAT      O 5519   0.470   0.543   1.998 -0.2517  0.4115 -0.0524
 1812WAT     H1 5520   0.544   0.566   1.941 -2.1245  0.7283 -2.5532
 1812WAT     H2 5521   0.455   0.622   2.050  1.5128  0.1135  0.9976
 1813WAT      O 5522   1.869   3.357   1.994 -0.1952  0.0210  0.6049
 1813WAT     H1 5523   1.930   3.344   2.066  1.1901  0.1491 -0.5126
 1813WAT     H2 5524   1.864   3.452   1.983  1.1653 -0.0368 -0.7359
 1814WAT      O 5525   0.620   0.836   0.341 -0.2321 -0.4088 -0.0688
 1814WAT     H1 5526   0.611   0.858   0.434 -1.7096  2.3031 -0.7216
 1814WAT     H2 5527   0.714   0.842   0.324  0.0467 -0.8188  1.2128
 1815WAT      O 5528   3.303   2.484   2.910  0.2513  0.0430 -0.4216
 1815WAT     H1 5529   3.348   2.521   2.986 -1.0318  1.1096 -0.1471
 1815WAT     H2 5530   3.256   2.408   2.944  1.6373 -0.9710 -0.6747
 1816WAT      O 5531   1.354   0.114   2.916 -0.3004  0.2686 -0.2713
 1816WAT     H1 5532   1.261   0.136   2.918 -0.2966  0.2648  0.1072
 1816WAT     H2 5533   1.357   0.024   2.884 -0.4530  0.1458  0.0587
 1817WAT      O 5534   0.017   2.375   3.745 -0.5160 -0.2429 -0.2921
 1817WAT     H1 5535  -0.057   2.377   3.807 -0.8849 -1.1107 -0.6845
 1817WAT     H2 5536   0.064   2.295   3.767 -0.0892 -0.0482 -0.4986
 1818WAT      O 5537   2.663   2.160   3.100 -0.4945  0.4481 -0.0804
 1818WAT     H1 5538   2.653   2.169   3.195 -1.0428 -2.5724  0.2511
 1818WAT     H2 5539   2.574   2.161   3.066 -0.3574  0.4850 -0.4404
 1819WAT      O 5540   0.750   1.488   3.787  0.0044 -0.4270  0.7560
 1819WAT     H1 5541   0.723   1.451   3.871  0.0709 -2.6642 -0.1214
 1819WAT     H2 5542   0.675   1.474   3.729  0.2339  0.3774  0.2413
 1820WAT      O 5543   0.235   0.147   3.652 -0.3356 -0.0247 -0.1562
 1820WAT     H1 5544   0.288   0.216   3.692 -0.0966 -1.1116  1.5103
 1820WAT     H2 5545   0.299   0.082   3.623 -0.6605 -0.9164  1.0348
 1821WAT      O 5546   1.735   1.664   3.123  0.2431 -0.6278 -0.5802
 1821WAT     H1 5547   1.756   1.655   3.216 -0.7284  3.1521  0.1711
 1821WAT     H2 5548   1.819   1.681   3.080  0.4209  0.2714  0.0920
 1822WAT      O 5549   1.709   2.172   0.588 -0.3259 -0.6680  0.1846
 1822WAT     H1 5550   1.676   2.217   0.665 -0.8258  0.7735 -0.8180
 1822WAT     H2 5551   1.634   2.171   0.528  0.2883 -1.0186 -0.5895
 1823WAT      O 5552   0.281   2.952   2.640  0.7381  0.3752  0.0386
 1823WAT     H1 5553   0.316   2.900   2.569 -0.7592  0.2195 -0.6116
 1823WAT     H2 5554   0.331   2.924   2.717 -0.0626 -2.0799 -0.2603
 1824WAT      O 5555   0.261   2.067   0.020 -0.2942 -0.0188  0.2629
 1824WAT     H1 5556   0.211   2.024   0.090  0.5207  1.2264  1.6861
 1824WAT     H2 5557   0.196   2.117  -0.029 -0.7433 -0.0462  0.8184
 1825WAT      O 5558   1.554   3.814   0.399 -1.1649  0.3265  0.5542
 1825WAT     H1 5559   1.578   3.722   0.390  2.0108  1.0630  0.5364
 1825WAT     H2 5560   1.584   3.839   0.486 -0.0075  1.8531 -0.2390
 1826WAT      O 5561   0.404   3.670   2.805  0.1880 -0.5151 -0.6467
 1826WAT     H1 5562   0.334   3.616   2.769  0.8364 -0.4944 -2.0183
 1826WAT     H2 5563   0.377   3.760   2.788 -0.8401 -0.3361  1.5420
 1827WAT      O 5564   3.094   1.472   0.743 -0.1935  0.3109  0.2028
 1827WAT     H1 5565   3.034   1.398   0.740  1.8498 -1.5231  1.2480
 1827WAT     H2 5566   3.054   1.533   0.805 -2.0338  0.2408 -0.8498
 1828WAT      O 5567   0.220   0.808   2.437 -0.1193  0.3399 -0.0567
 1828WAT     H1 5568   0.246   0.899   2.423 -1.7425  1.0578  1.2392
 1828WAT     H2 5569   0.253   0.788   2.525  1.9546 -1.0446 -1.0576
 1829WAT      O 5570   1.887   2.948   1.317  0.2545  0.4191 -0.1230
 1829WAT     H1 5571   1.912   2.862   1.350 -0.5100  0.7650  1.4267
 1829WAT     H2 5572   1.927   2.953   1.230  2.9463 -0.2893  0.9642
 1830WAT      O 5573   0.998   0.797   1.705 -0.4976 -0.1421 -0.0638
 1830WAT     H1 5574   1.075   0.741   1.694 -1.3442 -1.5505  0.7463
 1830WAT     H2 5575   1.032   0.880   1.737  0.6142 -1.0997  1.3579
 1831WAT      O 5576   3.026   2.372   1.189  0.2299  0.0559 -0.3929
 1831WAT     H1 5577   2.961   2.332   1.132  0.6019 -2.0255  0.5181
 1831WAT     H2 5578   2.976   2.427   1.249 -0.4369  0.2087 -1.0865
 1832WAT      O 5579   2.405   1.304   2.172  0.5011 -0.1073 -0.0932
 1832WAT     H1 5580   2.423   1.225   2.223 -1.2603 -1.2724 -1.1656
 1832WAT     H2 5581   2.314   1.325   2.191  0.8434  1.4913 -0.0937
 1833WAT      O 5582   0.355   0.630   3.841  0.1564  0.0031  0.3781
 1833WAT     H1 5583   0.412   0.692   3.887 -0.2114  0.1568  0.6288
 1833WAT     H2 5584   0.288   0.685   3.801  0.8440 -0.0598 -0.9144
 1834WAT      O 5585   3.649   3.444   1.832  0.0007  0.4130  0.1443
 1834WAT     H1 5586   3.597   3.372   1.798  0.9379 -0.0871 -0.2758
 1834WAT     H2 5587   3.675   3.494   1.755  0.9285  0.1069  0.2457
 1835WAT      O 5588   3.541   3.221   0.473  0.0807 -0.5311 -0.5339
 1835WAT     H1 5589   3.578   3.137   0.500  0.7422 -0.0731  0.0035
 1835WAT     H2 5590   3.531   3.212   0.378 -0.3583 -1.4041 -0.4198
 1836WAT      O 5591   1.158   3.053   2.138  0.3807  0.1528 -0.4312
 1836WAT     H1 5592   1.172   3.145   2.117  2.4576 -0.5103 -2.3294
 1836WAT     H2 5593   1.097   3.022   2.072 -0.9659  0.3047  0.6990
 1837WAT      O 5594   3.408   3.890   1.275  0.8132 -0.1320  0.1942
 1837WAT     H1 5595   3.466   3.950   1.322  1.9135  0.1993 -1.5048
 1837WAT     H2 5596   3.365   3.840   1.344  0.5701  1.9352  1.6486
 1838WAT      O 5597   1.673   0.445   1.813 -0.1588 -0.2697  0.2274
 1838WAT     H1 5598   1.742   0.490   1.862  0.8770  2.1422 -3.0486
 1838WAT     H2 5599   1.715   0.367   1.777  0.0474 -0.2659  0.4599
 1839WAT      O 5600   3.021   0.890   1.282 -0.2769  0.4560 -0.7056
 1839WAT     H1 5601   3.028   0.923   1.372 -1.9210  0.4145 -0.5368
 1839WAT     H2 5602   3.100   0.923   1.239  0.1692  1.1120  0.5518
 1840WAT      O 5603   2.721   1.903   0.807 -0.3273  0.3305  0.3640
 1840WAT     H1 5604   2.695   1.891   0.715  0.3670 -1.6060  0.3718
 1840WAT     H2 5605   2.815   1.919   0.802 -0.0847 -0.8548  0.7631
 1841WAT      O 5606   2.207   1.985   2.299  0.3477  0.7161  0.1081
 1841WAT     H1 5607   2.240   1.976   2.388  1.1277 -0.7479 -0.2937
 1841WAT     H2 5608   2.114   2.008   2.310  0.5002  0.8247  1.2859
 1842WAT      O 5609   2.900   3.071   3.449  0.4490  0.3565 -0.2718
 1842WAT     H1 5610   2.834   3.008   3.420 -1.2393  1.8412  0.1865
 1842WAT     H2 5611   2.925   3.118   3.370  1.1300 -0.3405 -0.4796
 1843WAT      O 5612   2.155   3.719   0.696  0.3319  0.5297  0.5943
 1843WAT     H1 5613   2.120   3.709   0.785  1.2438 -0.8135  0.8386
 1843WAT     H2 5614   2.186   3.631   0.673  0.2793  0.9075 -0.9863
 1844WAT      O 5615   1.751   2.421   3.818  0.3821  0.0992 -0.2348
 1844WAT     H1 5616   1.798   2.485   3.872  1.2868 -1.0194  0.3626
 1844WAT     H2 5617   1.732   2.349   3.878 -0.4942 -0.2536 -0.9214
 1845WAT      O 5618   2.439   2.316   2.354 -0.6772 -0.0164  0.2070
 1845WAT     H1 5619   2.427   2.377   2.281 -1.8404 -0.8127 -0.2981
 1845WAT     H2 5620   2.350   2.294   2.381 -0.2817  0.5970  2.1770
 1846WAT      O 5621   0.915   3.065   1.272  0.3573 -0.6209 -0.2652
 1846WAT     H1 5622   0.846   3.012   1.232  0.2897 -1.2871  0.7105
 1846WAT     H2 5623   0.893   3.155   1.248 -1.2260 -0.7572  0.5666
 1847WAT      O 5624   1.626   3.483   2.482  0.3135 -0.0510 -0.4509
 1847WAT     H1 5625   1.557   3.453   2.423 -0.1847 -0.3436  0.2760
 1847WAT     H2 5626   1.706   3.443   2.447 -0.1284 -1.0511 -0.3363
 1848WAT      O 5627   2.797   3.005   1.172  0.0133  0.0767  0.3722
 1848WAT     H1 5628   2.891   3.022   1.176 -0.0133  0.6434 -0.9005
 1848WAT     H2 5629   2.769   3.006   1.264  1.1944  0.1859  0.7500
 1849WAT      O 5630   2.891   3.706   0.290 -0.0504 -0.0971 -0.3256
 1849WAT     H1 5631   2.826   3.728   0.223 -0.0201  0.8157 -0.0611
 1849WAT     H2 5632   2.975   3.720   0.248  0.1030 -3.5842 -1.4823
 1850WAT      O 5633   1.450   1.571   2.979  0.1111 -0.1164 -0.3458
 1850WAT     H1 5634   1.423   1.481   2.999 -1.5708  0.6075  0.9099
 1850WAT     H2 5635   1.467   1.610   3.065 -0.1336  1.0395 -0.8090
 1851WAT      O 5636   0.256   4.009   3.380 -0.2255  0.1632 -0.0397
 1851WAT     H1 5637   0.300   3.998   3.296  1.7841 -1.3534  1.1367
 1851WAT     H2 5638   0.326   4.029   3.442 -1.4870 -0.0132  1.5133
 1852WAT      O 5639   0.139   2.736   0.616  0.3451 -0.0130 -0.7422
 1852WAT     H1 5640   0.056   2.689   0.621  0.6954 -0.5968 -0.0897
 1852WAT     H2 5641   0.161   2.738   0.523 -1.4689  2.1204 -1.2055
 1853WAT      O 5642   0.287   0.190   0.036  0.1289 -0.3362  0.4541
 1853WAT     H1 5643   0.328   0.266  -0.004  0.0098 -0.0654  0.8356
 1853WAT     H2 5644   0.325   0.115  -0.009  0.7581 -0.0777  0.5413
 1854WAT      O 5645   2.268   3.907   3.436 -0.1292 -0.0722 -0.2102
 1854WAT     H1 5646   2.347   3.915   3.383 -1.0311 -0.2606 -1.6687
 1854WAT     H2 5647   2.197   3.923   3.374 -1.3075 -1.7167  0.6359
 1855WAT      O 5648   2.073   0.993   2.244  0.5762 -0.2726  0.1014
 1855WAT     H1 5649   2.121   1.052   2.186 -1.3934  0.4726 -0.8793
 1855WAT     H2 5650   1.986   1.032   2.250  0.7579 -0.1699  3.8751
 1856WAT      O 5651   0.902   0.321   1.933  0.3296 -0.3578 -0.2804
 1856WAT     H1 5652   0.966   0.380   1.894  0.7187 -1.1163 -0.8230
 1856WAT     H2 5653   0.818   0.349   1.895  0.4874 -0.0557 -0.4082
 1857WAT      O 5654   1.311   2.534   0.826 -0.5081  0.5721  0.4659
 1857WAT     H1 5655   1.302   2.626   0.852  2.2594  0.7263  1.1636
 1857WAT     H2 5656   1.298   2.534   0.732  0.9036  1.9562  0.2397
 1858WAT      O 5657   1.641   2.793   2.559  0.3086 -0.0261 -0.3315
 1858WAT     H1 5658   1.674   2.715   2.515  3.2555  0.5800  0.5819
 1858WAT     H2 5659   1.651   2.775   2.652 -1.0635  0.6255 -0.0326
 1859WAT      O 5660   0.279   0.786   0.132 -0.1726 -0.3608  0.2601
 1859WAT     H1 5661   0.350   0.848   0.152  0.0539 -0.5563  0.0723
 1859WAT     H2 5662   0.300   0.708   0.183 -0.6067 -0.1857  0.7095
 1860WAT      O 5663   1.009   0.885   1.320  0.1792  0.0143  0.1177
 1860WAT     H1 5664   1.027   0.968   1.365 -2.2784 -0.3442  1.9178
 1860WAT     H2 5665   0.964   0.912   1.239 -1.5116  0.4621  1.1628
 1861WAT      O 5666   3.606   3.720   3.628  0.0079 -0.0550  0.4711
 1861WAT     H1 5667   3.691   3.758   3.605  0.5558 -1.4603  0.0705
 1861WAT     H2 5668   3.608   3.633   3.588 -1.8091  0.0647  0.0681
 1862WAT      O 5669   1.690   3.984   2.396 -0.4582  0.1580 -0.3227
 1862WAT     H1 5670   1.781   4.007   2.414 -0.2391 -0.4792 -0.5869
 1862WAT     H2 5671   1.695   3.911   2.334 -1.1217 -0.5693  0.4517
 1863WAT      O 5672   1.041   3.438   3.718  0.0703  0.2591 -0.3981
 1863WAT     H1 5673   1.017   3.456   3.626 -2.6533 -0.0282  0.1583
 1863WAT     H2 5674   1.005   3.351   3.735 -0.1276  0.6314  1.1545
 1864WAT      O 5675   0.731   0.585   2.746  0.3518 -0.3506  0.0750
 1864WAT     H1 5676   0.786   0.611   2.672  0.4887  0.7541  0.5486
 1864WAT     H2 5677   0.792   0.568   2.817  0.3043 -2.4571 -0.3138
 1865WAT      O 5678   1.392   3.563   1.089 -0.6903  0.2788  0.1649
 1865WAT     H1 5679   1.417   3.562   1.182 -0.3409 -1.6197  0.0893
 1865WAT     H2 5680   1.455   3.504   1.047 -2.1240 -0.5481 -0.9133
 1866WAT      O 5681   2.421   2.180   1.421 -0.2399 -0.3468 -0.0886
 1866WAT     H1 5682   2.346   2.229   1.387  0.5950  0.6645 -0.5023
 1866WAT     H2 5683   2.498   2.223   1.384  0.6333 -0.3790  1.5596
 1867WAT      O 5684   0.683   2.448   1.788 -0.4503  0.1589  0.3129
 1867WAT     H1 5685   0.613   2.386   1.810 -1.3563  0.2533 -2.0618
 1867WAT     H2 5686   0.672   2.519   1.851 -2.9629  0.4786 -0.3544
 1868WAT      O 5687   2.547   1.105   3.483 -0.0379  0.3926  0.2209
 1868WAT     H1 5688   2.635   1.123   3.452 -0.0498  0.5797  0.2958
 1868WAT     H2 5689   2.560   1.056   3.565 -0.0047  0.3340  0.1807
 1869WAT      O 5690   1.116   2.417   3.770  0.0675 -0.3021  0.1335
 1869WAT     H1 5691   1.071   2.498   3.746 -0.2957  0.2578  2.4228
 1869WAT     H2 5692   1.207   2.443   3.786  0.1510 -0.5126  0.0031
 1870WAT      O 5693   0.760   0.707   1.784  0.7246  0.3904  0.1360
 1870WAT     H1 5694   0.711   0.700   1.702  0.4474 -1.7192  0.4217
 1870WAT     H2 5695   0.850   0.727   1.757  0.2679  1.6409 -0.5392
 1871WAT      O 5696   3.249   1.011   1.172 -0.1916 -0.0483  0.1018
 1871WAT     H1 5697   3.217   1.101   1.181 -0.3480 -0.0666 -0.2384
 1871WAT     H2 5698   3.323   1.005   1.233 -0.1957  0.3030  0.1424
 1872WAT      O 5699   2.647   2.785   1.076 -0.5071  0.0017  0.3060
 1872WAT     H1 5700   2.599   2.827   1.004  0.1963 -0.9743 -0.7708
 1872WAT     H2 5701   2.712   2.851   1.103  0.1396 -0.0967 -0.9064
 1873WAT      O 5702   3.008   0.188   0.333  0.4454 -0.0110  0.0090
 1873WAT     H1 5703   2.953   0.113   0.358  0.4162 -0.7447 -2.0329
 1873WAT     H2 5704   2.956   0.234   0.267  0.9995  1.1092  0.3289
 1874WAT      O 5705   1.508   2.264   0.774  0.0278 -0.0492 -0.6215
 1874WAT     H1 5706   1.458   2.328   0.825 -0.5604 -1.6384  0.9293
 1874WAT     H2 5707   1.441   2.203   0.742  0.8744 -2.6746  2.1472
 1875WAT      O 5708   0.986   3.874   1.531  0.6399 -0.5155  0.7780
 1875WAT     H1 5709   0.980   3.805   1.597  0.7063 -0.5978  0.6980
 1875WAT     H2 5710   0.919   3.851   1.467  2.4262 -2.0127 -0.6640
 1876WAT      O 5711   2.706   2.236   0.527  0.0358  0.1527  0.3634
 1876WAT     H1 5712   2.785   2.251   0.474 -0.9479  0.7982 -0.9776
 1876WAT     H2 5713   2.731   2.264   0.615  1.6594 -0.7551  0.2322
 1877WAT      O 5714   0.471   3.689   2.054 -0.0776  0.5511  0.1148
 1877WAT     H1 5715   0.401   3.642   2.008  1.5895 -1.7031 -0.3257
 1877WAT     H2 5716   0.428   3.725   2.132 -1.7291 -0.7517 -0.1188
 1878WAT      O 5717   1.506   3.722   2.963  0.0101 -0.1992 -0.4699
 1878WAT     H1 5718   1.464   3.665   3.027  0.0332 -0.9782 -1.1392
 1878WAT     H2 5719   1.597   3.692   2.960 -0.0258 -0.2558 -0.9677
 1879WAT      O 5720   3.155   1.264   1.175  0.3277  0.4151 -0.1408
 1879WAT     H1 5721   3.185   1.303   1.258  0.8782 -2.5196  1.1535
 1879WAT     H2 5722   3.061   1.250   1.188  0.5890 -0.9252  0.4069
 1880WAT      O 5723   2.518   2.351   3.849  0.3218 -0.0031  0.1030
 1880WAT     H1 5724   2.559   2.265   3.851 -1.4323 -0.9172 -0.9677
 1880WAT     H2 5725   2.472   2.359   3.933 -1.6022 -1.2425 -0.7717
 1881WAT      O 5726   1.149   0.440   0.099 -0.0976 -0.5327 -0.0832
 1881WAT     H1 5727   1.187   0.460   0.184 -0.1957 -0.6580 -0.0092
 1881WAT     H2 5728   1.182   0.353   0.077  1.7566  0.3949 -1.2205
 1882WAT      O 5729   1.034   1.646   3.611 -0.7614 -0.1165 -0.0583
 1882WAT     H1 5730   0.995   1.562   3.634 -2.0198 -0.0724 -1.7850
 1882WAT     H2 5731   0.972   1.711   3.645 -0.8664  0.0306 -0.5157
 1883WAT      O 5732   2.572   1.345   0.956  0.5400 -0.1496 -0.6850
 1883WAT     H1 5733   2.562   1.354   0.861  0.5146  2.5278 -0.5075
 1883WAT     H2 5734   2.499   1.396   0.992  1.6018  0.4348  0.7417
 1884WAT      O 5735   0.066   2.348   0.924  0.0895 -0.3182  0.4267
 1884WAT     H1 5736  -0.001   2.397   0.972 -1.5022 -0.7230 -1.2384
 1884WAT     H2 5737   0.094   2.407   0.855  0.0830 -0.8199 -0.0121
 1885WAT      O 5738   0.438   1.586   3.124  0.3177 -0.2670  0.3418
 1885WAT     H1 5739   0.477   1.499   3.113  1.1494  0.0339  0.8149
 1885WAT     H2 5740   0.408   1.610   3.037  2.3178  0.0000 -0.3347
 1886WAT      O 5741   0.213   0.411   1.994  0.0303 -0.7854 -0.3425
 1886WAT     H1 5742   0.296   0.451   1.967 -1.6112  3.6951  0.4625
 1886WAT     H2 5743   0.200   0.440   2.084 -2.5796 -1.0260 -0.5626
 1887WAT      O 5744   0.877   2.728   1.673 -0.3841  0.4383  0.2200
 1887WAT     H1 5745   0.844   2.671   1.742  1.1302 -0.9708 -0.1405
 1887WAT     H2 5746   0.941   2.785   1.716  1.2447 -1.0555 -0.0861
 1888WAT      O 5747   0.487   2.769   2.934 -0.1831  0.2473  0.2200
 1888WAT     H1 5748   0.536   2.699   2.893  2.0495  1.9424 -0.1619
 1888WAT     H2 5749   0.521   2.849   2.895 -0.0494  1.7824  3.1843
 1889WAT      O 5750   2.800   3.155   0.660  0.1708  0.0355 -0.5065
 1889WAT     H1 5751   2.865   3.155   0.590 -1.6778  0.7174 -2.3295
 1889WAT     H2 5752   2.850   3.172   0.739  2.4813 -1.6395 -1.4850
 1890WAT      O 5753   1.108   3.567   3.244 -0.1341  0.3657  0.1792
 1890WAT     H1 5754   1.199   3.540   3.233 -0.4707 -0.4909 -0.7329
 1890WAT     H2 5755   1.083   3.602   3.159 -1.2399 -1.3150 -0.2318
 1891WAT      O 5756   1.737   4.050   2.826  0.0774  0.3280  0.4588
 1891WAT     H1 5757   1.745   3.989   2.753 -0.7660  0.7400  0.0159
 1891WAT     H2 5758   1.822   4.094   2.829  0.7970 -1.0217  0.9504
 1892WAT      O 5759   0.136   1.410   3.624 -0.0715  0.1382  0.2614
 1892WAT     H1 5760   0.080   1.480   3.590  0.0763  0.1520  0.0482
 1892WAT     H2 5761   0.101   1.392   3.711  1.0708  1.8110  1.1276
 1893WAT      O 5762   3.269   3.409   1.632  0.0454  0.6480  0.0532
 1893WAT     H1 5763   3.249   3.321   1.601  1.2659  1.5768 -3.9177
 1893WAT     H2 5764   3.187   3.458   1.622 -0.2443  0.3325  0.8449
 1894WAT      O 5765   2.214   2.430   0.913  0.0391 -0.0850  0.5275
 1894WAT     H1 5766   2.202   2.523   0.894 -0.6560 -0.6520 -2.1401
 1894WAT     H2 5767   2.292   2.406   0.863  0.0755 -1.0094  1.0213
 1895WAT      O 5768   1.879   3.454   2.294 -0.1574  0.2965  0.5008
 1895WAT     H1 5769   1.965   3.474   2.332  1.5649 -1.3578 -2.1700
 1895WAT     H2 5770   1.847   3.538   2.261  0.9390  0.7656  0.5910
 1896WAT      O 5771   3.342   2.715   1.180  0.2793  0.1941 -0.0354
 1896WAT     H1 5772   3.368   2.774   1.110 -0.5505  0.6637  0.0385
 1896WAT     H2 5773   3.356   2.766   1.260  0.3076  0.0036  0.0825
 1897WAT      O 5774   2.054   1.488   2.633 -0.0126  0.2057  0.1003
 1897WAT     H1 5775   2.080   1.580   2.626 -1.0390  0.4476 -0.8547
 1897WAT     H2 5776   2.029   1.477   2.724 -2.7454  1.7284 -0.3623
 1898WAT      O 5777   0.412   0.485   0.993 -0.3789  0.4331  0.0289
 1898WAT     H1 5778   0.381   0.410   0.944  0.2825 -0.7406  1.3460
 1898WAT     H2 5779   0.506   0.469   1.005  0.1572  2.3542 -1.1965
 1899WAT      O 5780   1.162   4.041   0.729 -0.6383  0.4801  0.5161
 1899WAT     H1 5781   1.078   4.074   0.763 -1.0089  0.6343 -0.5289
 1899WAT     H2 5782   1.139   3.958   0.687 -0.3225  0.6695 -0.0344
 1900WAT      O 5783   0.652   0.367   1.027 -0.0523  0.1616 -0.3213
 1900WAT     H1 5784   0.717   0.343   1.093 -0.4198  0.4952  0.1676
 1900WAT     H2 5785   0.704   0.398   0.953  0.4003 -1.3955 -0.6811
 1901WAT      O 5786   0.811   0.745   3.477  0.1720 -0.3497 -0.2962
 1901WAT     H1 5787   0.847   0.829   3.448 -1.6768  0.6770  0.2200
 1901WAT     H2 5788   0.877   0.710   3.536  1.4682  0.2042 -1.3452
 1902WAT      O 5789   3.273   3.209   2.379 -0.2993  0.0546 -0.4214
 1902WAT     H1 5790   3.285   3.283   2.319  0.3274  0.9671  0.8013
 1902WAT     H2 5791   3.214   3.242   2.446 -3.1774 -1.7774 -1.8405
 1903WAT      O 5792   0.062   0.369   0.079  0.0159 -0.1631 -0.2504
 1903WAT     H1 5793   0.113   0.295   0.047 -1.1111 -1.6059  1.1012
 1903WAT     H2 5794   0.093   0.381   0.169 -1.0900 -0.2170  0.1475
 1904WAT      O 5795   2.860   1.353   0.240 -0.0318  0.1847 -0.1195
 1904WAT     H1 5796   2.848   1.381   0.331 -0.0651  1.1569 -0.4154
 1904WAT     H2 5797   2.954   1.340   0.231 -0.0653 -0.2822  0.1511
 1905WAT      O 5798   0.783   1.000   2.616 -0.2932 -0.3838 -0.0215
 1905WAT     H1 5799   0.757   1.038   2.699 -3.2657 -1.3725 -0.3683
 1905WAT     H2 5800   0.853   0.939   2.638 -0.6579 -0.2224  1.6645
 1906WAT      O 5801   0.659   0.508   2.386 -0.1815  0.3709 -0.0266
 1906WAT     H1 5802   0.655   0.602   2.367 -1.0161  0.4755  0.6126
 1906WAT     H2 5803   0.568   0.479   2.383 -0.1029 -0.0942  1.3077
 1907WAT      O 5804   3.485   3.290   3.439  0.0780 -0.6683  0.3557
 1907WAT     H1 5805   3.465   3.301   3.346 -1.0435 -1.9911  0.4057
 1907WAT     H2 5806   3.503   3.196   3.448  1.1700 -0.3922  1.3076
 1908WAT      O 5807   1.063   0.184   2.247 -0.2099 -0.1025  0.3005
 1908WAT     H1 5808   1.106   0.117   2.300 -0.3291 -1.8331 -1.6638
 1908WAT     H2 5809   1.124   0.200   2.175 -0.7243  1.0440  0.0952
 1909WAT      O 5810   3.173   3.139   1.582  0.1222 -0.1327  0.5283
 1909WAT     H1 5811   3.094   3.156   1.531  0.5149 -1.1472 -0.4389
 1909WAT     H2 5812   3.141   3.097   1.662 -0.3032 -0.5987  0.1144
 1910WAT      O 5813   2.885   1.819   1.468  0.2845 -0.1546 -0.3626
 1910WAT     H1 5814   2.806   1.872   1.465  0.6743  0.5139  0.6964
 1910WAT     H2 5815   2.864   1.741   1.417 -2.7821 -2.3495  3.7110
 1911WAT      O 5816   2.562   1.810   2.189  0.3388  0.8725 -0.4256
 1911WAT     H1 5817   2.593   1.864   2.262 -0.5054  2.3569 -1.1234
 1911WAT     H2 5818   2.640   1.797   2.135  0.8899  0.0608  0.5349
 1912WAT      O 5819   0.803   3.151   3.477 -0.6173  0.0522  0.1779
 1912WAT     H1 5820   0.804   3.226   3.417  1.1061 -1.3529 -1.7078
 1912WAT     H2 5821   0.789   3.075   3.419  2.4131 -1.5267  1.2952
 1913WAT      O 5822   2.923   2.887   1.941 -0.1007  0.1115  0.5173
 1913WAT     H1 5823   2.999   2.929   1.902 -1.1986  0.2426 -1.6111
 1913WAT     H2 5824   2.957   2.803   1.975  0.7250 -0.6134 -1.9055
 1914WAT      O 5825   3.230   1.619   2.124  0.4907 -0.2900  0.1995
 1914WAT     H1 5826   3.173   1.688   2.091  0.1407 -0.4211  0.5227
 1914WAT     H2 5827   3.307   1.665   2.157  1.0371 -0.1860 -1.1750
 1915WAT      O 5828   0.438   2.400   0.812  0.2236 -0.0553  0.3141
 1915WAT     H1 5829   0.346   2.423   0.800  0.2874  0.4986  0.8405
 1915WAT     H2 5830   0.459   2.347   0.735 -1.2995 -2.6111  1.5194
 1916WAT      O 5831   2.301   0.991   3.868 -0.5268 -0.2510  0.3464
 1916WAT     H1 5832   2.229   0.984   3.806 -0.4044  0.4802  0.1124
 1916WAT     H2 5833   2.276   0.934   3.941 -0.9708 -0.6088 -0.0776
 1917WAT      O 5834   3.084   1.475   3.525 -0.0289  0.0386  0.2369
 1917WAT     H1 5835   3.104   1.385   3.500  1.2410 -0.3651  2.4226
 1917WAT     H2 5836   3.169   1.515   3.545 -0.5806  1.6939 -0.5255
 1918WAT      O 5837   3.176   1.109   0.711  0.0244  0.1573 -0.3519
 1918WAT     H1 5838   3.179   1.140   0.620 -0.5927 -0.1791 -0.4889
 1918WAT     H2 5839   3.175   1.014   0.704 -0.7811  0.1380 -0.0124
 1919WAT      O 5840   0.257   3.097   3.888 -0.0434 -0.0652 -0.2947
 1919WAT     H1 5841   0.306   3.153   3.828  0.8707 -0.4172  0.0985
 1919WAT     H2 5842   0.212   3.158   3.947  0.5109  0.2697 -0.2083
 1920WAT      O 5843   0.220   2.520   1.173 -0.0360 -0.1962  0.0916
 1920WAT     H1 5844   0.232   2.429   1.148  1.8659 -0.3376  1.2613
 1920WAT     H2 5845   0.135   2.522   1.217 -0.8033 -1.0516 -1.2643
 1921WAT      O 5846   3.117   0.234   3.830 -0.1082 -0.6516 -0.2221
 1921WAT     H1 5847   3.197   0.250   3.780  0.0011  1.3053  0.4648
 1921WAT     H2 5848   3.120   0.300   3.900 -1.8860 -1.1394  0.3589
 1922WAT      O 5849   2.275   2.156   0.030  0.6480  0.4623  0.1336
 1922WAT     H1 5850   2.229   2.171  -0.052 -0.2870 -0.2837  0.4986
 1922WAT     H2 5851   2.331   2.233   0.041  1.8326 -0.0463 -1.8650
 1923WAT      O 5852   1.266   4.002   2.612 -0.6071  0.0771 -0.3519
 1923WAT     H1 5853   1.186   4.027   2.659 -0.3930  0.4653 -0.1900
 1923WAT     H2 5854   1.269   3.906   2.619  0.1161  0.1936  1.6267
 1924WAT      O 5855   1.034   3.249   0.672  0.0759  0.3580  0.3462
 1924WAT     H1 5856   1.017   3.222   0.762  0.2665  0.4295  0.4023
 1924WAT     H2 5857   0.968   3.316   0.654 -0.6272 -0.3806  0.0926
 1925WAT      O 5858   0.641   0.361   1.501  0.3594  0.0598  0.0858
 1925WAT     H1 5859   0.552   0.344   1.470  0.9876 -0.3261 -1.6408
 1925WAT     H2 5860   0.697   0.323   1.433  1.8455  0.4902  1.0314
 1926WAT      O 5861   3.269   0.153   0.784  0.6804  0.1867  0.4274
 1926WAT     H1 5862   3.332   0.223   0.796 -0.2724  1.3648 -1.0755
 1926WAT     H2 5863   3.288   0.118   0.696 -0.5759  0.4108  0.0440
 1927WAT      O 5864   1.458   1.496   3.589 -0.7895 -0.2838 -0.5264
 1927WAT     H1 5865   1.392   1.500   3.659 -1.7749 -1.3021 -1.3600
 1927WAT     H2 5866   1.525   1.559   3.616 -1.0402 -0.7998  1.4302
 1928WAT      O 5867   2.906   3.946   1.420  0.6077  0.5536 -0.5857
 1928WAT     H1 5868   2.982   3.933   1.363 -0.2360 -0.5858 -1.4990
 1928WAT     H2 5869   2.860   4.020   1.382  0.0181 -0.2373 -1.4589
 1929WAT      O 5870   1.658   0.835   2.608  0.4812  0.1015  0.1137
 1929WAT     H1 5871   1.576   0.879   2.584  0.3584 -0.0407  0.2706
 1929WAT     H2 5872   1.673   0.860   2.700  0.7088  0.2714  0.0327
 1930WAT      O 5873   0.002   2.227   0.215  0.6736  0.1394 -1.0197
 1930WAT     H1 5874   0.042   2.165   0.276 -0.9898  1.9681  2.2003
 1930WAT     H2 5875  -0.079   2.184   0.187  0.5726  0.0100 -0.5284
 1931WAT      O 5876   0.474   0.453   2.742  0.5171 -0.1324 -0.2664
 1931WAT     H1 5877   0.554   0.501   2.760  1.6085 -1.2447 -1.8989
 1931WAT     H2 5878   0.490   0.366   2.779  0.3742 -0.5751 -1.2145
 1932WAT      O 5879   1.114   2.506   1.494  0.3986 -0.0148 -0.1351
 1932WAT     H1 5880   1.025   2.534   1.516 -0.5215 -1.4879 -1.7384
 1932WAT     H2 5881   1.121   2.417   1.527  0.6236 -0.5581 -1.5705
 1933WAT      O 5882   2.420   3.760   2.608  0.1270  0.3960  0.0987
 1933WAT     H1 5883   2.509   3.745   2.576 -0.2630 -0.4764 -0.6061
 1933WAT     H2 5884   2.390   3.838   2.561 -0.6777 -1.2323 -2.2649
 1934WAT      O 5885   3.070   1.826   3.728  0.1567 -0.6379 -0.3098
 1934WAT     H1 5886   3.148   1.875   3.756 -1.4930  2.4519 -0.6407
 1934WAT     H2 5887   3.067   1.838   3.633 -1.1082 -0.0175 -0.2087
 1935WAT      O 5888   0.353   2.776   2.452  0.1782 -0.3333  0.8885
 1935WAT     H1 5889   0.268   2.769   2.410  0.6727  1.2153 -0.4794
 1935WAT     H2 5890   0.360   2.697   2.505 -1.3988 -1.3221 -0.2785
 1936WAT      O 5891   0.232   3.071   3.585 -0.1395 -0.4161 -0.6894
 1936WAT     H1 5892   0.202   3.157   3.556  1.9997  0.4450 -0.4874
 1936WAT     H2 5893   0.304   3.049   3.526  0.6037 -1.1768  0.4532
 1937WAT      O 5894   0.545   2.512   3.249 -0.0930 -0.4460  0.0498
 1937WAT     H1 5895   0.569   2.442   3.310 -0.0696  0.1829  0.7789
 1937WAT     H2 5896   0.450   2.504   3.240  0.1664 -2.0526 -1.7376
 1938WAT      O 5897   0.802   0.467   3.034  0.0815  0.6860  0.0837
 1938WAT     H1 5898   0.886   0.441   2.996 -0.1172 -0.3483  0.3123
 1938WAT     H2 5899   0.823   0.542   3.089  1.0853 -0.2929  1.0818
 1939WAT      O 5900   0.966   3.893   1.180 -0.3537  0.1269  0.2318
 1939WAT     H1 5901   1.017   3.813   1.173 -0.9498 -0.3670  1.2339
 1939WAT     H2 5902   0.919   3.899   1.097 -0.7241 -0.8678  0.3554
 1940WAT      O 5903   0.223   1.905   2.773 -0.0097  0.4406  0.0129
 1940WAT     H1 5904   0.161   1.975   2.795 -1.2652 -0.2909 -1.0398
 1940WAT     H2 5905   0.188   1.867   2.693 -0.3942 -2.5665  1.4654
 1941WAT      O 5906   2.494   0.416   0.472 -0.1276  0.4716  0.2491
 1941WAT     H1 5907   2.430   0.458   0.415 -1.3364 -0.6347  0.7576
 1941WAT     H2 5908   2.514   0.481   0.538 -0.5283  0.9204 -0.0654
 1942WAT      O 5909   1.004   1.776   3.224 -0.7848  0.4566  0.5488
 1942WAT     H1 5910   1.089   1.792   3.183  0.0126  0.1142  2.0057
 1942WAT     H2 5911   0.974   1.694   3.185 -0.3058  0.4299  0.2368
 1943WAT      O 5912   3.288   3.949   3.064  0.1316  0.5243  0.2098
 1943WAT     H1 5913   3.234   3.870   3.068  2.1953 -0.9566  0.1778
 1943WAT     H2 5914   3.360   3.927   3.005  1.1480  2.1744  0.7537
 1944WAT      O 5915   0.783   1.421   0.587  0.3853 -0.5722 -0.0390
 1944WAT     H1 5916   0.746   1.338   0.558 -1.2675  0.0222  0.2434
 1944WAT     H2 5917   0.724   1.488   0.551  2.0254  0.5366 -0.7843
 1945WAT      O 5918   0.428   0.855   1.478  0.4472 -0.0142 -0.4489
 1945WAT     H1 5919   0.475   0.913   1.538 -0.8449  2.5634 -1.7184
 1945WAT     H2 5920   0.459   0.767   1.500  1.6041  0.9852  2.4792
 1946WAT      O 5921   1.537   0.200   1.152 -0.3385 -0.3405  0.2510
 1946WAT     H1 5922   1.559   0.132   1.088 -1.5896 -1.1833  0.6567
 1946WAT     H2 5923   1.447   0.178   1.179 -0.7821  1.5077  0.3776
 1947WAT      O 5924   2.784   0.819   1.146 -0.1936 -0.5202 -0.3355
 1947WAT     H1 5925   2.769   0.883   1.076 -0.8404  0.3775  0.5984
 1947WAT     H2 5926   2.878   0.826   1.164 -0.1689 -0.1882 -0.5741
 1948WAT      O 5927   2.299   2.017   1.609 -0.5647 -0.0798 -0.4013
 1948WAT     H1 5928   2.244   2.085   1.649  2.0959  1.8634  0.2949
 1948WAT     H2 5929   2.347   2.064   1.540  0.8233 -1.4363 -0.3938
 1949WAT      O 5930   2.099   0.886   3.129 -0.4014 -0.9347 -0.5113
 1949WAT     H1 5931   2.031   0.953   3.133 -0.1054 -0.6639  0.2241
 1949WAT     H2 5932   2.084   0.841   3.046 -0.2812  0.3870 -1.2885
 1950WAT      O 5933   0.466   1.174   3.718  0.0988  0.2854 -0.0541
 1950WAT     H1 5934   0.404   1.158   3.647 -1.2694  1.2573  0.8722
 1950WAT     H2 5935   0.416   1.224   3.783  2.1441  2.0527  0.2641
 1951WAT      O 5936   2.923   1.245   2.452 -0.2593  0.2463  0.4231
 1951WAT     H1 5937   2.925   1.341   2.455  0.2127  0.2237  2.5610
 1951WAT     H2 5938   3.002   1.220   2.405  0.5768  0.9062  1.4453
 1952WAT      O 5939   3.137   1.353   0.258 -0.0154  0.6431  0.3264
 1952WAT     H1 5940   3.194   1.373   0.184 -0.1880  0.6173  0.1851
 1952WAT     H2 5941   3.140   1.432   0.312 -1.2625  1.3588 -0.5941
 1953WAT      O 5942   0.890   3.663   2.364  0.0004 -0.1731 -0.1216
 1953WAT     H1 5943   0.835   3.640   2.288  0.6544 -0.0953 -0.6267
 1953WAT     H2 5944   0.976   3.678   2.327  0.2117  0.3797  0.5791
 1954WAT      O 5945   0.490   2.400   0.005  0.4936  0.1456 -0.4263
 1954WAT     H1 5946   0.548   2.415   0.080  0.9421 -0.0319 -0.7310
 1954WAT     H2 5947   0.511   2.311  -0.024 -1.2222 -0.6359  0.5669
 1955WAT      O 5948   0.727   0.923   0.588  0.0828  0.1709  0.0680
 1955WAT     H1 5949   0.783   0.919   0.511 -1.5676 -0.1373 -1.1562
 1955WAT     H2 5950   0.762   0.854   0.646  1.7552  0.8532 -0.0594
 1956WAT      O 5951   2.156   3.563   0.962 -0.1889 -0.1573  0.1614
 1956WAT     H1 5952   2.155   3.484   0.908  1.1743 -0.3388  0.3572
 1956WAT     H2 5953   2.238   3.557   1.012 -0.0840  1.3445  0.2211
 1957WAT      O 5954   3.145   2.817   3.830  0.4109 -0.2909 -0.0947
 1957WAT     H1 5955   3.074   2.867   3.790 -1.1937 -2.6723 -0.4429
 1957WAT     H2 5956   3.184   2.768   3.758  0.0862 -1.6184  0.5994
 1958WAT      O 5957   1.941   3.517   0.452  0.3350  0.3324 -0.4188
 1958WAT     H1 5958   1.970   3.427   0.466 -0.0063  0.3890  0.7109
 1958WAT     H2 5959   1.855   3.508   0.411  0.5788  0.1548 -0.9003
 1959WAT      O 5960   2.321   0.769   2.614 -0.1026 -0.1375  0.2284
 1959WAT     H1 5961   2.299   0.858   2.584 -1.4268 -0.7004 -0.5689
 1959WAT     H2 5962   2.414   0.760   2.594  0.3370  1.4500  1.3496
 1960WAT      O 5963   1.397   2.401   1.348  0.4211 -0.1978  0.0437
 1960WAT     H1 5964   1.491   2.420   1.344  0.5315 -0.1335  1.9615
 1960WAT     H2 5965   1.392   2.313   1.386 -0.2855 -0.1733  0.0161
 1961WAT      O 5966   3.248   0.984   2.565  0.5745  0.1265  0.1177
 1961WAT     H1 5967   3.291   0.907   2.602  0.6700 -1.4187 -2.8742
 1961WAT     H2 5968   3.164   0.989   2.610  1.5434 -0.2274  2.0593
 1962WAT      O 5969   2.218   3.081   2.560 -0.2656 -0.4337 -0.4232
 1962WAT     H1 5970   2.128   3.059   2.584 -0.8397  1.0669 -1.0217
 1962WAT     H2 5971   2.209   3.126   2.476  0.9130  0.7121  0.0336
 1963WAT      O 5972   1.498   0.663   0.161 -0.4682 -0.4797 -0.2556
 1963WAT     H1 5973   1.578   0.715   0.168  0.7137 -2.1022 -1.0033
 1963WAT     H2 5974   1.507   0.594   0.226 -1.3440 -0.5882 -0.2263
 1964WAT      O 5975   2.443   0.872   3.062 -0.0336 -0.2257 -0.5589
 1964WAT     H1 5976   2.511   0.938   3.049 -0.0256  0.0437  0.6819
 1964WAT     H2 5977   2.388   0.908   3.132 -1.1222 -0.6995 -1.1463
 1965WAT      O 5978   2.026   3.104   1.900 -0.1572  0.2922  0.2806
 1965WAT     H1 5979   2.082   3.160   1.954 -1.5738 -0.0288  2.1608
 1965WAT     H2 5980   1.978   3.165   1.844  0.4360  0.7119  0.2122
 1966WAT      O 5981   2.518   2.297   3.317 -0.3567  0.0159 -0.0960
 1966WAT     H1 5982   2.537   2.235   3.387 -0.8803  0.7578  0.7250
 1966WAT     H2 5983   2.484   2.375   3.362 -1.0325  0.3859 -1.1963
 1967WAT      O 5984   2.645   2.833   0.718 -0.1261 -0.0095 -0.0786
 1967WAT     H1 5985   2.580   2.791   0.662  0.2725  0.6923 -1.0968
 1967WAT     H2 5986   2.727   2.789   0.697  0.5317  1.9970 -2.0500
 1968WAT      O 5987   0.684   1.510   1.271  0.0757  0.5555 -0.4620
 1968WAT     H1 5988   0.779   1.519   1.267  0.1178  0.3309  0.0333
 1968WAT     H2 5989   0.663   1.521   1.364 -0.3524  0.2846 -0.5274
 1969WAT      O 5990   1.082   3.653   1.118  0.0858 -0.1094  0.2264
 1969WAT     H1 5991   1.152   3.612   1.066 -0.0475 -0.6687  0.4776
 1969WAT     H2 5992   1.102   3.628   1.208 -1.6356 -2.1935  0.1342
 1970WAT      O 5993   2.463   2.846   0.479 -0.2080 -0.5384 -0.2032
 1970WAT     H1 5994   2.457   2.752   0.497  0.3516 -0.5186  0.1129
 1970WAT     H2 5995   2.398   2.861   0.410 -0.0215 -1.2300 -0.5426
 1971WAT      O 5996   0.021   1.165   3.331 -0.4318  0.0506  0.1097
 1971WAT     H1 5997  -0.048   1.197   3.272 -0.8458 -0.5001  0.2896
 1971WAT     H2 5998  -0.026   1.134   3.408  0.1330  1.1781  0.9425
 1972WAT      O 5999   0.168   2.459   1.462 -0.4996 -0.4307  0.3736
 1972WAT     H1 6000   0.089   2.493   1.419 -0.2641  0.6496  0.7631
 1972WAT     H2 6001   0.205   2.535   1.507  1.2871 -0.6808 -0.5890
 1973WAT      O 6002   0.076   3.573   0.318 -0.2135  0.2923  0.0411
 1973WAT     H1 6003   0.118   3.649   0.278  1.0104 -0.7462 -0.6996
 1973WAT     H2 6004   0.140   3.539   0.380 -1.3792  0.7783  1.6001
 1974WAT      O 6005   1.627   3.364   3.223  0.3728 -0.1509 -0.7213
 1974WAT     H1 6006   1.535   3.369   3.247  1.2718  0.6691  3.2367
 1974WAT     H2 6007   1.643   3.271   3.208 -0.5583 -0.7041  1.3776
 1975WAT      O 6008   1.163   2.772   0.929 -0.0010  0.1918 -0.0508
 1975WAT     H1 6009   1.134   2.767   1.020 -0.6898  0.2654 -0.2636
 1975WAT     H2 6010   1.088   2.742   0.878  0.7377 -0.8843 -0.5460
 1976WAT      O 6011   0.249   3.393   1.158  0.0708 -0.0023  0.3973
 1976WAT     H1 6012   0.180   3.454   1.184 -0.0444  0.9360 -1.8468
 1976WAT     H2 6013   0.218   3.356   1.075  0.3142 -2.9012  1.4938
 1977WAT      O 6014   3.291   3.446   0.428 -0.0666  0.1883 -0.0532
 1977WAT     H1 6015   3.371   3.462   0.378  0.9455 -0.3662  1.3115
 1977WAT     H2 6016   3.280   3.525   0.481  0.3512 -0.2769  0.7423
 1978WAT      O 6017   2.582   2.899   0.122 -0.1736  0.0078  0.3435
 1978WAT     H1 6018   2.637   2.935   0.192 -0.8496 -1.3009  1.5882
 1978WAT     H2 6019   2.637   2.904   0.044  2.0854 -1.9346  1.6670
 1979WAT      O 6020   1.898   3.849   1.467  0.2777  0.0934  0.3665
 1979WAT     H1 6021   1.875   3.756   1.476 -0.3012  0.1135 -0.7490
 1979WAT     H2 6022   1.815   3.892   1.446  0.8480  0.6088 -0.8793
 1980WAT      O 6023   0.074   3.306   2.045  0.1653  0.4403 -0.4994
 1980WAT     H1 6024   0.013   3.351   1.986 -0.8103  0.1272  0.2449
 1980WAT     H2 6025   0.159   3.318   2.004 -0.2642  1.6887 -1.1002
 1981WAT      O 6026   2.688   0.378   0.091  0.2692  0.1755  0.0056
 1981WAT     H1 6027   2.689   0.469   0.121  0.3017  0.4765 -0.8618
 1981WAT     H2 6028   2.645   0.330   0.161  3.7701  0.1566  2.3651
 1982WAT      O 6029   0.520   0.234   2.909  0.0815  0.3831  0.1912
 1982WAT     H1 6030   0.538   0.291   2.983  1.5408  0.8394 -0.4806
 1982WAT     H2 6031   0.459   0.168   2.944 -1.0620  1.8886  1.1644
 1983WAT      O 6032   1.868   1.438   0.872 -0.2596 -0.2386 -0.4251
 1983WAT     H1 6033   1.815   1.358   0.867  0.1798 -0.5400 -0.2838
 1983WAT     H2 6034   1.852   1.473   0.959  0.4975 -0.8366 -0.0394
 1984WAT      O 6035   1.905   1.081   0.944  0.0368 -0.2063  0.5402
 1984WAT     H1 6036   1.915   0.986   0.952 -1.4702 -0.4227  0.1767
 1984WAT     H2 6037   1.810   1.094   0.936  0.2420  1.3108  0.3725
 1985WAT      O 6038   0.006   3.597   1.608 -0.4208  0.5221  0.0689
 1985WAT     H1 6039  -0.029   3.685   1.623 -0.0227  0.8743 -0.9695
 1985WAT     H2 6040   0.084   3.611   1.554 -0.3178 -0.4700 -0.0593
 1986WAT      O 6041   1.015   2.093   1.589 -0.1852  0.1619  0.5870
 1986WAT     H1 6042   1.106   2.065   1.600  0.5684  1.9688 -0.4938
 1986WAT     H2 6043   0.988   2.054   1.505  0.4432  1.5234 -0.2907
 1987WAT      O 6044   1.401   0.935   2.479 -0.0783 -0.4448  0.2396
 1987WAT     H1 6045   1.313   0.939   2.441  0.7527 -1.3859 -1.9127
 1987WAT     H2 6046   1.399   0.858   2.536 -1.2914  0.8864  2.1062
 1988WAT      O 6047   2.365   3.477   2.388  0.3593  0.0230 -0.0033
 1988WAT     H1 6048   2.394   3.418   2.458 -0.9016 -0.7490 -0.0984
 1988WAT     H2 6049   2.285   3.516   2.422  0.1617  0.2482 -0.7100
 1989WAT      O 6050   1.148   1.387   2.544  0.3399  0.3852  0.1810
 1989WAT     H1 6051   1.062   1.420   2.517  0.6479 -0.4502 -2.0439
 1989WAT     H2 6052   1.134   1.293   2.554  1.2960 -0.0237 -1.8214
 1990WAT      O 6053   0.251   0.507   2.996 -0.0132  0.1064 -0.0177
 1990WAT     H1 6054   0.340   0.542   2.997 -0.1409  0.5058 -1.0111
 1990WAT     H2 6055   0.196   0.585   3.005 -0.2650 -0.2231  1.4864
 1991WAT      O 6056   2.370   3.597   1.912  0.0616  0.3679 -0.4191
 1991WAT     H1 6057   2.412   3.513   1.928  0.3885  0.6918  0.4724
 1991WAT     H2 6058   2.316   3.613   1.990  1.2810  1.7359  0.1987
 1992WAT      O 6059   2.624   2.715   3.625 -0.3226 -0.5806 -0.1514
 1992WAT     H1 6060   2.609   2.808   3.639 -0.0339 -0.2781 -1.6605
 1992WAT     H2 6061   2.708   2.710   3.579 -0.8867 -1.4726 -1.1518
 1993WAT      O 6062   0.634   1.263   2.330  0.8516  0.0792 -0.2770
 1993WAT     H1 6063   0.552   1.251   2.378  0.6808 -0.0816 -0.6008
 1993WAT     H2 6064   0.612   1.240   2.239  1.3755 -0.4384 -0.2804
 1994WAT      O 6065   1.853   2.578   1.662  0.0380  0.9878  0.0070
 1994WAT     H1 6066   1.927   2.622   1.621  0.8276 -0.0233  0.2961
 1994WAT     H2 6067   1.780   2.595   1.603  0.8968  0.5319 -1.2345
 1995WAT      O 6068   0.445   2.321   1.453 -0.1126  0.1066  0.0949
 1995WAT     H1 6069   0.360   2.361   1.434 -0.1237 -0.8340 -2.2935
 1995WAT     H2 6070   0.454   2.252   1.386  1.7751 -0.9675  1.3634
 1996WAT      O 6071   0.082   2.724   0.216  0.1194  0.6102  0.3379
 1996WAT     H1 6072   0.097   2.633   0.190  0.8351  0.8458 -0.0880
 1996WAT     H2 6073   0.152   2.742   0.279  1.7866  1.7358 -1.7037
 1997WAT      O 6074   3.068   0.193   0.974  0.0800 -0.0768  0.2653
 1997WAT     H1 6075   3.022   0.114   1.004  1.9242 -0.5316  2.1000
 1997WAT     H2 6076   3.136   0.161   0.916  0.9609  0.1112  1.1679
 1998WAT      O 6077   2.429   1.886   3.330  0.0889 -0.2957 -0.2330
 1998WAT     H1 6078   2.466   1.812   3.282 -0.1822 -0.1007 -0.7514
 1998WAT     H2 6079   2.345   1.903   3.287 -0.3174 -0.3351  0.5288
 1999WAT      O 6080   1.770   3.668   0.131  0.1406  0.1798  0.0563
 1999WAT     H1 6081   1.803   3.678   0.220  0.1674 -0.6844  0.1525
 1999WAT     H2 6082   1.803   3.582   0.103 -1.3859 -0.3857 -0.1139
 2000WAT      O 6083   3.464   1.969   2.947  0.1389  0.1267 -0.3430
 2000WAT     H1 6084   3.371   1.971   2.922  0.2294  1.0829 -0.6258
 2000WAT     H2 6085   3.502   1.903   2.889 -0.5458 -1.0476  0.4854
 2001WAT      O 6086   1.345   2.196   1.935 -0.5500  0.4309  0.0430
 2001WAT     H1 6087   1.376   2.113   1.899  1.9455  1.0343  0.6239
 2001WAT     H2 6088   1.251   2.197   1.916 -0.3493 -1.7901 -1.3794
 2002WAT      O 6089   0.934   1.049   2.925  0.4740 -0.3845 -0.1329
 2002WAT     H1 6090   0.840   1.061   2.935  0.6105  1.0438 -0.2910
 2002WAT     H2 6091   0.971   1.070   3.010  0.8660  2.2776 -0.8654
 2003WAT      O 6092   3.383   0.395   2.335  0.6607 -0.1809 -0.5564
 2003WAT     H1 6093   3.318   0.461   2.310  1.4126  0.6118 -0.4800
 2003WAT     H2 6094   3.373   0.326   2.269 -0.1097  0.0297 -0.6678
 2004WAT      O 6095   1.394   3.550   1.361 -0.5080 -0.0570  0.2749
 2004WAT     H1 6096   1.458   3.509   1.419  0.4919  2.0596  0.7602
 2004WAT     H2 6097   1.310   3.534   1.404  0.0409 -0.0482  1.3924
 2005WAT      O 6098   3.470   4.010   2.869  0.1293  0.0186 -0.4824
 2005WAT     H1 6099   3.526   4.087   2.860  1.1291 -0.5772  0.3802
 2005WAT     H2 6100   3.427   4.001   2.784  0.2350  1.3315 -0.6967
 2006WAT      O 6101   0.398   2.473   0.353  0.4620 -0.5769 -0.3537
 2006WAT     H1 6102   0.424   2.416   0.424  0.7398 -0.7267 -0.5747
 2006WAT     H2 6103   0.479   2.496   0.309  0.2102 -1.2680 -1.2114
 2007WAT      O 6104   0.663   1.379   3.135  0.0308  0.4159 -0.5931
 2007WAT     H1 6105   0.690   1.414   3.050  0.9641  1.4022  0.0763
 2007WAT     H2 6106   0.746   1.367   3.182 -0.4863  0.0638  0.2387
 2008WAT      O 6107   2.433   0.959   1.755 -0.3367  0.3695  0.6217
 2008WAT     H1 6108   2.395   1.013   1.686  0.4542  0.9903  0.6528
 2008WAT     H2 6109   2.481   1.022   1.810  0.4382 -0.3449  0.7751
   3.70154   4.09513   3.97631
