Generic title
 8184
    1U5    HO5'    1   0.161   4.261   0.160 -1.7387  0.4166 -2.2514
    1U5     O5'    2   0.207   4.324   0.105  0.9150  0.6969  0.0936
    1U5     C5'    3   0.310   4.390   0.183 -0.3535 -0.5030 -0.2279
    1U5     H5'    4   0.407   4.340   0.186  1.0811  2.2100  2.1522
    1U5    H5''    5   0.283   4.390   0.288  0.1248  0.0407 -0.1061
    1U5     C4'    6   0.331   4.535   0.140  0.4132 -0.8671  0.1235
    1U5     H4'    7   0.397   4.587   0.210  0.7744  0.5317 -1.2052
    1U5     O4'    8   0.385   4.540   0.009 -0.0842 -0.0613 -0.0621
    1U5     C1'    9   0.336   4.656  -0.062 -0.0190  0.4552 -0.5903
    1U5     H1'   10   0.423   4.716  -0.088  0.7426 -0.8864 -1.2521
    1U5      N1   11   0.262   4.624  -0.190 -0.4447 -0.2695 -0.0935
    1U5      C6   12   0.188   4.510  -0.199  0.1741 -0.0747  0.2848
    1U5      H6   13   0.189   4.447  -0.111  1.2142 -0.5659 -0.0564
    1U5      C5   14   0.132   4.473  -0.312  0.8621  0.7725  0.3674
    1U5      H5   15   0.075   4.381  -0.311  0.2739  1.1331  0.3585
    1U5      C4   16   0.139   4.548  -0.434 -0.0490 -0.5601  0.3006
    1U5      O4   17   0.101   4.518  -0.545  0.2547 -0.0248 -0.0911
    1U5      N3   18   0.204   4.672  -0.416  0.3757  0.2966 -0.0280
    1U5      H3   19   0.222   4.729  -0.497  3.8615 -0.9035 -0.2791
    1U5      C2   20   0.278   4.706  -0.306  0.1437 -0.0947 -0.6675
    1U5      O2   21   0.350   4.805  -0.302 -0.0903  0.1400  0.3377
    1U5     C3'   22   0.197   4.619   0.129  0.0159  0.3597 -0.0767
    1U5     H3'   23   0.127   4.560   0.070  1.5206 -1.6256  0.0138
    1U5     C2'   24   0.247   4.729   0.039  0.2506 -1.0081  0.4078
    1U5     H2'   25   0.159   4.772  -0.009  0.7738 -0.3868  0.0030
    1U5     O2'   26   0.315   4.830   0.114  0.1308 -0.4543  0.9053
    1U5    HO2'   27   0.250   4.880   0.164  2.2311  3.1492  0.4389
    1U5     O3'   28   0.144   4.668   0.250 -0.3076 -0.2854 -0.2295
    2U        P   29   0.022   4.774   0.261  0.3600 -0.0234 -0.0229
    2U      OP1   30  -0.029   4.775   0.401 -0.7207 -0.0373  0.2026
    2U      OP2   31  -0.069   4.748   0.144  0.2414  0.3544 -0.1690
    2U      O5'   32   0.086   4.920   0.235  0.1887  0.2855 -0.0101
    2U      C5'   33   0.135   5.002   0.340  0.0721  0.6191 -0.0171
    2U      H5'   34   0.227   4.963   0.384 -0.4076 -0.1415  0.3445
    2U     H5''   35   0.059   5.013   0.417 -1.0417 -1.2847 -0.7777
    2U      C4'   36   0.167   5.143   0.275  0.4349 -0.1463 -0.0757
    2U      H4'   37   0.202   5.204   0.359  2.2459  0.2437 -1.0752
    2U      O4'   38   0.258   5.129   0.167  0.5414 -0.0882  0.5892
    2U      C1'   39   0.223   5.221   0.068  0.9539  0.0896  0.2251
    2U      H1'   40   0.311   5.284   0.056  1.3152 -0.7324 -2.0227
    2U       N1   41   0.195   5.162  -0.069 -0.2450 -0.0687 -0.2584
    2U       C6   42   0.127   5.046  -0.080 -0.2883  0.1245 -0.4977
    2U       H6   43   0.102   4.993   0.011 -1.9353  0.4738 -0.7212
    2U       C5   44   0.098   4.983  -0.194  0.3438 -0.2413 -0.2175
    2U       H5   45   0.042   4.891  -0.191 -0.0765  0.0347  0.7091
    2U       C4   46   0.128   5.047  -0.315 -0.4125  0.4197  0.0308
    2U       O4   47   0.107   4.995  -0.423  0.0461  0.0537  0.7093
    2U       N3   48   0.193   5.166  -0.307  0.0493  0.1128  0.0524
    2U       H3   49   0.212   5.218  -0.391  0.7563 -0.2731 -0.0325
    2U       C2   50   0.215   5.237  -0.189  0.1160  0.0127 -0.7522
    2U       O2   51   0.241   5.359  -0.201  0.4845 -0.1595 -0.2543
    2U      C3'   52   0.046   5.211   0.216 -0.4315  0.0206 -0.4861
    2U      H3'   53  -0.022   5.139   0.170  0.6743 -0.2807 -1.6918
    2U      C2'   54   0.103   5.303   0.111  0.6667  0.0181  0.0710
    2U      H2'   55   0.034   5.319   0.028  1.0820  2.0695  0.0681
    2U      O2'   56   0.157   5.420   0.171 -0.1885  0.2642  0.5224
    2U     HO2'   57   0.102   5.454   0.242 -0.3859 -1.5341  1.2841
    2U      O3'   58  -0.029   5.278   0.324 -0.3372  0.3725  0.6239
    3U        P   59  -0.183   5.295   0.303  0.0471  0.5854  0.3809
    3U      OP1   60  -0.217   5.402   0.396  0.1164 -0.0124 -0.3521
    3U      OP2   61  -0.253   5.165   0.319  0.1024  0.2567  0.6897
    3U      O5'   62  -0.201   5.349   0.152  0.5879 -0.1494  0.8133
    3U      C5'   63  -0.207   5.489   0.119  0.3714 -0.7477  0.3072
    3U      H5'   64  -0.123   5.548   0.154 -0.2858  0.4557 -0.0527
    3U     H5''   65  -0.289   5.541   0.169 -0.9908  0.4481 -2.8774
    3U      C4'   66  -0.241   5.509  -0.040 -0.0573  0.0835 -0.6778
    3U      H4'   67  -0.217   5.614  -0.053 -0.9756  0.5977  1.4501
    3U      O4'   68  -0.163   5.421  -0.121 -0.1001  0.4796 -0.0353
    3U      C1'   69  -0.228   5.414  -0.248  1.1933  0.5820 -0.3183
    3U      H1'   70  -0.175   5.473  -0.322  0.8604 -1.7264 -2.5564
    3U       N1   71  -0.221   5.272  -0.303 -0.2327 -0.1103 -0.3928
    3U       C6   72  -0.224   5.161  -0.227 -0.2131 -0.0024 -0.0863
    3U       H6   73  -0.223   5.159  -0.119  0.6040 -0.7151 -0.0942
    3U       C5   74  -0.219   5.038  -0.283 -0.5337  0.0658 -0.8988
    3U       H5   75  -0.220   4.951  -0.219 -0.5609 -0.5837 -1.7491
    3U       C4   76  -0.221   5.016  -0.429  0.3799  0.2151  0.0979
    3U       O4   77  -0.225   4.905  -0.481 -0.7100  0.0343 -0.3790
    3U       N3   78  -0.220   5.133  -0.503 -0.2650  0.2943 -0.3095
    3U       H3   79  -0.221   5.118  -0.603 -1.9782  0.7242 -0.3900
    3U       C2   80  -0.218   5.256  -0.445 -0.1729 -0.2516 -0.1519
    3U       O2   81  -0.207   5.354  -0.523  0.4195  0.0346 -0.4162
    3U      C3'   82  -0.386   5.476  -0.077  0.2894  0.3954 -0.5360
    3U      H3'   83  -0.413   5.379  -0.035  1.6245 -0.8261 -2.3514
    3U      C2'   84  -0.368   5.470  -0.229  0.1818  0.1974  0.1924
    3U      H2'   85  -0.443   5.405  -0.274 -1.0470  0.9696  1.0794
    3U      O2'   86  -0.378   5.601  -0.286  0.0374 -0.2659 -0.3620
    3U     HO2'   87  -0.448   5.656  -0.251  1.0371  0.8831 -0.1240
    3U      O3'   88  -0.463   5.578  -0.025  0.0347 -0.6093  0.3386
    4U3       P   89  -0.617   5.564   0.004  0.0220  0.0523 -0.0256
    4U3     OP1   90  -0.683   5.530  -0.126 -0.7630  0.3142  0.4116
    4U3     OP2   91  -0.665   5.689   0.068  0.3145  0.2620  0.2025
    4U3     O5'   92  -0.628   5.444   0.106  0.1655  0.0009  0.1551
    4U3     C5'   93  -0.569   5.439   0.236  0.3234  0.4089  0.6824
    4U3     H5'   94  -0.589   5.535   0.284 -0.0086  0.4378  0.4928
    4U3    H5''   95  -0.461   5.426   0.230  0.3309  0.8217 -0.2367
    4U3     C4'   96  -0.612   5.324   0.320  0.5834 -0.3383  0.3912
    4U3     H4'   97  -0.557   5.334   0.413 -0.3846  1.9863  0.7897
    4U3     O4'   98  -0.756   5.322   0.345 -0.3145  0.8086 -0.0863
    4U3     C1'   99  -0.805   5.188   0.330 -0.5875  0.9563 -0.0600
    4U3     H1'  100  -0.787   5.131   0.421  2.5083  0.0261 -1.1387
    4U3      N1  101  -0.951   5.200   0.287  0.3352  0.5147  0.5668
    4U3      C6  102  -0.990   5.282   0.183  0.6296  0.2001  0.1126
    4U3      H6  103  -0.910   5.345   0.147  1.8214 -0.9599  0.6098
    4U3      C5  104  -1.116   5.282   0.137 -0.1632  0.3216 -0.5275
    4U3      H5  105  -1.145   5.330   0.045 -1.7370  1.2616  0.4304
    4U3      C4  106  -1.228   5.217   0.214  0.7558  0.1182 -0.0755
    4U3      O4  107  -1.348   5.214   0.184  0.0886  0.5216  0.2497
    4U3      N3  108  -1.184   5.155   0.323 -0.3010 -0.0582 -0.2415
    4U3      H3  109  -1.256   5.108   0.377 -0.3565  0.3717  0.0674
    4U3      C2  110  -1.053   5.152   0.372 -0.8101  0.0999  0.2509
    4U3      O2  111  -1.028   5.108   0.481 -0.6136 -0.0420 -0.6363
    4U3     C3'  112  -0.579   5.187   0.257 -0.0793  0.0652  0.3094
    4U3     H3'  113  -0.521   5.205   0.167  0.4218  0.7854  0.7660
    4U3     C2'  114  -0.710   5.124   0.220 -0.0871 -0.8600 -0.2720
    4U3     H2'  115  -0.751   5.169   0.129 -1.1085 -2.6996 -0.7763
    4U3     O2'  116  -0.712   4.981   0.191 -0.1124 -0.3477 -0.1530
    4U3    HO2'  117  -0.663   4.932   0.258 -0.9030  0.2154  0.8625
    4U3     O3'  118  -0.508   5.109   0.355  0.6752 -0.7567  0.0279
    4U3    HO3'  119  -0.422   5.151   0.358 -0.1693  1.0982 -0.5884
    5Na+    Na+  120   2.900   3.411   2.334  0.2767 -0.2438 -0.4930
    6Na+    Na+  121   2.983   3.706   0.076 -0.1425 -0.1428 -0.2238
    7Na+    Na+  122   1.905   1.749   2.548 -0.2912 -0.1181  0.3538
    8Na+    Na+  123   0.926   0.578   1.575  0.1713  0.4881  0.3101
    9Na+    Na+  124   1.662   0.497   1.482  0.1395  0.0552 -0.2722
   10Na+    Na+  125   3.103   0.591   3.741  0.1933  0.0927  0.0954
   11Na+    Na+  126   1.655   0.380   3.507 -0.3151  0.0908  0.0008
   12Na+    Na+  127   2.796   1.254   1.069 -0.0921  0.2435  0.5182
   13Cl-    Cl-  128   1.988   1.873   1.411  0.3456  0.2969 -0.1210
   14Cl-    Cl-  129   1.684   1.150   2.024  0.1007  0.1946 -0.3049
   15Cl-    Cl-  130   2.684   3.362   0.306  0.3099  0.0019 -0.4509
   16Cl-    Cl-  131   3.371   1.088   1.898  0.2785  0.2350 -0.0907
   17Cl-    Cl-  132   1.132   4.120   3.405 -0.7325  0.4206 -0.2018
   18WAT      O  133   0.979   1.877   0.229  0.7355 -0.3172  0.0187
   18WAT     H1  134   1.008   1.931   0.155  0.0161 -0.3671 -0.3060
   18WAT     H2  135   1.035   1.905   0.302 -0.6461  2.0220  0.2952
   18WAT    EPW  136   0.990   1.888   0.229  0.4584 -0.0152  0.0123
   19WAT      O  137   1.779   0.441   2.885 -0.2019 -0.1505 -0.1555
   19WAT     H1  138   1.820   0.373   2.832 -0.5934 -1.6543  1.3992
   19WAT     H2  139   1.734   0.497   2.822 -0.2401 -1.5711 -1.4361
   19WAT    EPW  140   1.779   0.440   2.870 -0.2586 -0.5362 -0.1193
   20WAT      O  141   1.379   0.135   3.759 -0.1111 -0.1771  0.1866
   20WAT     H1  142   1.296   0.096   3.733 -0.2360 -0.5223  1.0461
   20WAT     H2  143   1.355   0.218   3.799 -0.0298 -0.1627  0.2071
   20WAT    EPW  144   1.365   0.141   3.761 -0.1169 -0.2207  0.3027
   21WAT      O  145   3.595   1.755   2.715  0.1154  0.1127  0.3799
   21WAT     H1  146   3.627   1.841   2.742  1.1440  0.1628 -0.9149
   21WAT     H2  147   3.670   1.697   2.726 -0.8647 -0.9203  2.3234
   21WAT    EPW  148   3.609   1.759   2.720  0.1218 -0.0170  0.4655
   22WAT      O  149   1.042   0.482   2.274  0.2649 -0.2098  0.6912
   22WAT     H1  150   1.020   0.491   2.367  1.5512 -1.1337  1.1212
   22WAT     H2  151   1.116   0.540   2.261  0.3903 -0.4391  0.3648
   22WAT    EPW  152   1.049   0.491   2.285  0.4511 -0.3619  0.7049
   23WAT      O  153   3.113   1.361   2.811  0.1381  0.1031 -0.0101
   23WAT     H1  154   3.042   1.411   2.851  0.4786 -0.3364  1.1745
   23WAT     H2  155   3.073   1.320   2.734 -1.2473 -1.1269  1.3042
   23WAT    EPW  156   3.099   1.362   2.806  0.0003 -0.1171  0.3195
   24WAT      O  157   0.465   0.751   3.280  0.2478  0.5118  0.2400
   24WAT     H1  158   0.521   0.729   3.355 -1.5637 -2.5899  0.8709
   24WAT     H2  159   0.499   0.698   3.208 -0.5680  0.2243  0.0592
   24WAT    EPW  160   0.477   0.741   3.281 -0.0987  0.0648  0.2994
   25WAT      O  161   2.487   2.780   2.899  0.4594 -0.1938 -0.2097
   25WAT     H1  162   2.517   2.803   2.987  0.0062 -0.4283  0.0111
   25WAT     H2  163   2.393   2.765   2.909  0.5698 -1.1832 -0.5408
   25WAT    EPW  164   2.478   2.781   2.912  0.4142 -0.3552 -0.2243
   26WAT      O  165   3.010   0.392   3.825  0.2482  0.5988  0.1850
   26WAT     H1  166   2.941   0.356   3.769  0.4200 -0.4328  0.6087
   26WAT     H2  167   2.967   0.407   3.909  0.0232  2.0203 -0.1656
   26WAT    EPW  168   2.995   0.389   3.828  0.2412  0.6502  0.1946
   27WAT      O  169   0.218   0.694   1.320  0.5260  0.4029 -0.2994
   27WAT     H1  170   0.261   0.612   1.295 -2.1843 -1.2790  0.1886
   27WAT     H2  171   0.184   0.729   1.238 -0.4274 -0.2879 -0.2150
   27WAT    EPW  172   0.220   0.688   1.306  0.0427  0.0900 -0.2239
   28WAT      O  173   2.713   3.064   1.729  0.4545 -0.2966  0.0112
   28WAT     H1  174   2.770   3.051   1.654 -0.8687  1.6094 -1.4178
   28WAT     H2  175   2.758   3.021   1.801  3.0612  0.0210 -1.3171
   28WAT    EPW  176   2.726   3.057   1.729  0.6237 -0.0033 -0.3525
   29WAT      O  177   1.129   0.466   1.545 -0.0941  0.1697  0.8191
   29WAT     H1  178   1.106   0.401   1.478 -1.3751  0.3376  1.0632
   29WAT     H2  179   1.224   0.463   1.550  0.0204  0.0534 -0.9038
   29WAT    EPW  180   1.138   0.457   1.537 -0.2479  0.1765  0.6241
   30WAT      O  181   3.233   0.521   0.204  0.7113 -0.1789  0.3159
   30WAT     H1  182   3.300   0.589   0.192 -0.0431  0.5552  0.2195
   30WAT     H2  183   3.209   0.526   0.296  0.6608 -0.3342  0.3125
   30WAT    EPW  184   3.239   0.530   0.215  0.6052 -0.1026  0.3027
   31WAT      O  185   2.084   0.554   0.989  0.1144 -0.0053  0.1477
   31WAT     H1  186   2.014   0.489   0.981 -1.2749  1.4536  0.0766
   31WAT     H2  187   2.140   0.519   1.058 -2.3949  0.2550  2.4861
   31WAT    EPW  188   2.082   0.541   0.997 -0.3998  0.2215  0.4467
   32WAT      O  189   2.351   1.666   2.712 -0.4537  0.0277  0.8998
   32WAT     H1  190   2.301   1.588   2.686 -2.6896  1.2766  1.2233
   32WAT     H2  191   2.388   1.699   2.630  0.3535 -1.2077  0.7309
   32WAT    EPW  192   2.349   1.660   2.697 -0.6421  0.0295  0.9202
   33WAT      O  193   0.459   2.547   2.423  0.0439  0.3788 -0.1943
   33WAT     H1  194   0.405   2.606   2.475  0.7118  0.2831  0.6386
   33WAT     H2  195   0.448   2.461   2.465  0.9598  0.3915  0.1060
   33WAT    EPW  196   0.451   2.543   2.436  0.2528  0.3678 -0.0449
   34WAT      O  197   0.465   3.602   3.664  0.2819  0.1459 -0.6293
   34WAT     H1  198   0.427   3.631   3.581 -0.3156 -0.1328 -0.4650
   34WAT     H2  199   0.547   3.649   3.672  0.3932  0.0900 -1.4341
   34WAT    EPW  200   0.471   3.612   3.654  0.2177  0.1018 -0.7138
   35WAT      O  201   1.880   1.610   1.892  0.0224  0.3451 -0.0981
   35WAT     H1  202   1.823   1.686   1.898  0.6259  0.6917  2.0722
   35WAT     H2  203   1.904   1.605   1.800 -3.4633  0.1728 -1.1369
   35WAT    EPW  204   1.875   1.619   1.881 -0.3578  0.3681  0.0511
   36WAT      O  205   0.622   0.812   2.181  0.0883  0.2987 -0.0929
   36WAT     H1  206   0.552   0.748   2.196  0.3245  0.0796  0.1016
   36WAT     H2  207   0.580   0.884   2.136  0.1344 -0.6958 -1.8179
   36WAT    EPW  208   0.607   0.813   2.177  0.1255  0.1386 -0.2948
   37WAT      O  209   2.237   2.340   1.485 -0.2595 -0.1796 -0.0907
   37WAT     H1  210   2.177   2.366   1.416 -0.4342  0.2118  0.2052
   37WAT     H2  211   2.320   2.383   1.462 -1.1383  2.7353  1.6586
   37WAT    EPW  212   2.240   2.349   1.473 -0.3985  0.2565  0.1790
   38WAT      O  213   3.084   3.363   3.384 -0.1960 -0.2231 -0.4715
   38WAT     H1  214   3.116   3.426   3.320  0.6004 -0.0659  0.0759
   38WAT     H2  215   3.060   3.416   3.460 -1.3098 -0.3897 -0.6846
   38WAT    EPW  216   3.085   3.378   3.385 -0.2379 -0.2243 -0.4274
   39WAT      O  217   3.584   3.631   0.721  0.2299  0.1971 -0.0346
   39WAT     H1  218   3.613   3.540   0.714 -0.1830  0.0890 -0.4694
   39WAT     H2  219   3.609   3.658   0.809  0.6741 -0.2242 -0.0256
   39WAT    EPW  220   3.591   3.623   0.732  0.2340  0.1273 -0.0907
   40WAT      O  221   1.731   2.649   2.347 -0.2828 -0.4130  0.3865
   40WAT     H1  222   1.811   2.657   2.295  0.0375 -0.7733  0.8155
   40WAT     H2  223   1.665   2.618   2.285  0.1802 -1.1629  0.2538
   40WAT    EPW  224   1.733   2.646   2.332 -0.1795 -0.5594  0.4256
   41WAT      O  225   0.778   2.729   0.292 -0.4276  0.0264  0.0445
   41WAT     H1  226   0.740   2.669   0.356 -1.3679  1.7699  1.2033
   41WAT     H2  227   0.839   2.675   0.242 -1.9293 -2.1004  0.3608
   41WAT    EPW  228   0.781   2.714   0.294 -0.7497 -0.0242  0.2391
   42WAT      O  229   3.146   1.542   0.290  0.1991  0.6251 -0.2070
   42WAT     H1  230   3.181   1.466   0.336  0.4156  0.7416 -0.1794
   42WAT     H2  231   3.124   1.510   0.203 -2.4568 -0.2123  0.6680
   42WAT    EPW  232   3.147   1.528   0.285 -0.1226  0.5300 -0.0880
   43WAT      O  233   1.773   0.480   2.116  0.0797 -0.2090 -0.5837
   43WAT     H1  234   1.726   0.545   2.169  0.2998 -1.0760  0.7242
   43WAT     H2  235   1.855   0.523   2.093  0.0948  0.0971  0.0140
   43WAT    EPW  236   1.777   0.494   2.120  0.1107 -0.2829 -0.3324
   44WAT      O  237   2.740   2.133   2.060  0.5713  0.6627  0.2394
   44WAT     H1  238   2.691   2.153   1.981  1.8941  0.6101 -0.6184
   44WAT     H2  239   2.786   2.052   2.040  0.9296  0.6502  1.0605
   44WAT    EPW  240   2.739   2.125   2.047  0.7930  0.6541  0.2346
   45WAT      O  241   2.862   0.808   0.932 -0.2374 -0.1161  0.0670
   45WAT     H1  242   2.825   0.804   1.020 -0.2400  0.6207  0.1048
   45WAT     H2  243   2.793   0.847   0.879  1.2355  3.5432  0.5866
   45WAT    EPW  244   2.848   0.812   0.936 -0.0434  0.4637  0.1405
   46WAT      O  245   1.485   0.223   1.000 -0.0148 -0.0285  0.5106
   46WAT     H1  246   1.527   0.301   0.963  0.1626 -1.4386 -2.5078
   46WAT     H2  247   1.422   0.258   1.063  1.9763  2.3741  1.3377
   46WAT    EPW  248   1.482   0.238   1.004  0.2712  0.1024  0.2216
   47WAT      O  249   3.189   0.560   3.053 -0.0400 -0.4893 -0.0491
   47WAT     H1  250   3.198   0.509   2.972 -1.1484  0.1876 -0.6224
   47WAT     H2  251   3.115   0.619   3.036  0.5503  0.5845  0.9721
   47WAT    EPW  252   3.180   0.561   3.040 -0.1083 -0.2584  0.0100
   48WAT      O  253   3.107   3.916   0.059 -0.1459  0.1580  0.0637
   48WAT     H1  254   3.197   3.892   0.079 -0.3737 -1.3312 -0.5913
   48WAT     H2  255   3.106   3.929  -0.035 -0.6233  0.0988  0.0582
   48WAT    EPW  256   3.119   3.915   0.049 -0.2389 -0.0463 -0.0234
   49WAT      O  257   2.632   0.910   0.785 -0.2989  0.1478 -0.1796
   49WAT     H1  258   2.587   0.836   0.825  1.4016 -1.0249 -0.3157
   49WAT     H2  259   2.624   0.981   0.849 -2.2050 -0.0236 -0.1733
   49WAT    EPW  260   2.625   0.909   0.799 -0.3260 -0.0294 -0.1967
   50WAT      O  261   3.667   3.592   1.550  0.6998  0.4600  0.1042
   50WAT     H1  262   3.617   3.511   1.552  0.5942  0.5327  1.1141
   50WAT     H2  263   3.632   3.641   1.476  1.6177 -0.9272 -1.3173
   50WAT    EPW  264   3.656   3.588   1.540  0.8069  0.2867  0.0499
   51WAT      O  265   2.650   2.419   3.434  0.0333 -0.0858  0.3713
   51WAT     H1  266   2.692   2.499   3.403 -1.9966  0.8521 -0.1332
   51WAT     H2  267   2.662   2.421   3.529 -0.8376  1.3715  0.4803
   51WAT    EPW  268   2.657   2.430   3.443 -0.3493  0.2301  0.3191
   52WAT      O  269   1.589   1.513   3.837 -0.0982 -0.0588 -0.1668
   52WAT     H1  270   1.495   1.496   3.834  0.1311 -1.8705  1.2244
   52WAT     H2  271   1.597   1.607   3.818 -2.2720  0.3605  0.6660
   52WAT    EPW  272   1.578   1.523   3.834 -0.3547 -0.2425  0.1265
   53WAT      O  273   2.619   2.348   2.524 -0.5155  0.3302  0.7176
   53WAT     H1  274   2.713   2.346   2.508 -0.5011 -0.1953  0.8662
   53WAT     H2  275   2.601   2.267   2.572 -1.0382  0.4451  0.7187
   53WAT    EPW  276   2.629   2.337   2.528 -0.5826  0.2761  0.7373
   54WAT      O  277   3.207   3.234   0.151 -0.4396 -0.2120 -0.0675
   54WAT     H1  278   3.134   3.203   0.205 -1.3902 -0.4690 -1.4609
   54WAT     H2  279   3.175   3.314   0.111  0.1407 -0.1904 -0.4930
   54WAT    EPW  280   3.193   3.240   0.153 -0.4884 -0.2431 -0.3074
   55WAT      O  281   3.209   3.605   3.200  0.3852 -0.0511 -0.0432
   55WAT     H1  282   3.267   3.619   3.126  0.5867 -0.3067  0.0672
   55WAT     H2  283   3.267   3.583   3.273  0.1047 -1.0218 -0.1035
   55WAT    EPW  284   3.224   3.604   3.200  0.3748 -0.2128 -0.0366
   56WAT      O  285   3.352   4.013   0.387 -0.1114  0.3996  0.0571
   56WAT     H1  286   3.263   4.024   0.420  0.5524  1.3172  1.6861
   56WAT     H2  287   3.399   3.972   0.460  1.0913  1.1631 -0.2595
   56WAT    EPW  288   3.347   4.009   0.401  0.1348  0.6213  0.2302
   57WAT      O  289   0.848   1.456   3.139  0.7708 -0.1427  0.1212
   57WAT     H1  290   0.873   1.466   3.231 -1.1085  2.8351  0.4724
   57WAT     H2  291   0.768   1.508   3.131  0.7002 -0.5538 -3.1561
   57WAT    EPW  292   0.841   1.464   3.150  0.5136  0.1958 -0.2648
   58WAT      O  293   2.763   1.142   1.502 -0.3215 -0.1988 -0.5615
   58WAT     H1  294   2.749   1.159   1.408 -1.3097  0.0161 -0.3878
   58WAT     H2  295   2.716   1.213   1.545  0.4929 -0.0508  0.1000
   58WAT    EPW  296   2.755   1.154   1.495 -0.3444 -0.1509 -0.4513
   59WAT      O  297   3.678   2.383   3.427  0.3309  0.0638 -0.3422
   59WAT     H1  298   3.652   2.397   3.336 -0.9535 -0.3512 -0.0585
   59WAT     H2  299   3.664   2.467   3.469  2.0270  0.5908 -0.7451
   59WAT    EPW  300   3.673   2.396   3.420  0.3852  0.0786 -0.3579
   60WAT      O  301   3.216   2.060   3.213 -0.1345  0.1177  0.5277
   60WAT     H1  302   3.121   2.066   3.215 -0.1129  2.2361 -0.8647
   60WAT     H2  303   3.235   2.009   3.134 -0.1491  0.8661  0.0208
   60WAT    EPW  304   3.206   2.054   3.203 -0.1336  0.4958  0.2772
   61WAT      O  305   0.448   1.889   1.459 -0.0646  0.2053  0.3699
   61WAT     H1  306   0.520   1.934   1.504 -0.3170 -0.1893  1.1704
   61WAT     H2  307   0.491   1.841   1.388  0.2505  1.4044 -0.2755
   61WAT    EPW  308   0.464   1.889   1.455 -0.0563  0.3115  0.3904
   62WAT      O  309   2.399   1.607   3.548  0.1735 -0.2044  0.4773
   62WAT     H1  310   2.450   1.540   3.594  1.1394 -0.5070 -0.9631
   62WAT     H2  311   2.425   1.689   3.588  1.1305 -0.4481  0.3702
   62WAT    EPW  312   2.409   1.609   3.559  0.4271 -0.2765  0.2732
   63WAT      O  313   2.514   2.361   0.759  0.7619  0.2530 -0.4678
   63WAT     H1  314   2.447   2.334   0.821 -0.7613  0.4624 -1.9587
   63WAT     H2  315   2.500   2.305   0.682  0.3765  2.2265 -1.9090
   63WAT    EPW  316   2.504   2.350   0.757  0.5101  0.5409 -0.8546
   64WAT      O  317   1.882   4.199   2.448  0.3200 -0.0136  0.3698
   64WAT     H1  318   1.825   4.258   2.498  0.7885 -0.3558  1.3409
   64WAT     H2  319   1.971   4.228   2.469  0.5358 -0.3838 -0.0014
   64WAT    EPW  320   1.886   4.211   2.457  0.4102 -0.1076  0.4489
   65WAT      O  321   0.789   4.198   0.950  0.0171  0.1658  0.8157
   65WAT     H1  322   0.767   4.146   0.873  1.9131 -0.8320  0.8856
   65WAT     H2  323   0.717   4.183   1.011 -0.7280 -0.3035 -0.1506
   65WAT    EPW  324   0.777   4.189   0.948  0.1689 -0.0277  0.6975
   66WAT      O  325   3.225   3.838   1.087  0.0783  0.1285  0.1715
   66WAT     H1  326   3.215   3.920   1.039 -1.1946 -0.3422 -0.3994
   66WAT     H2  327   3.138   3.798   1.086  0.4356 -0.7287  1.3619
   66WAT    EPW  328   3.212   3.843   1.080 -0.0424 -0.0466  0.2532
   67WAT      O  329   1.315   2.459   3.106 -0.2110 -0.3335  0.4969
   67WAT     H1  330   1.298   2.447   3.012  0.5316 -0.0142  0.3121
   67WAT     H2  331   1.237   2.425   3.149 -1.1934  0.8566 -0.2944
   67WAT    EPW  332   1.302   2.453   3.099 -0.2426 -0.1344  0.3681
   68WAT      O  333   1.750   3.729   3.109 -0.0536  0.1940 -0.0430
   68WAT     H1  334   1.733   3.669   3.036 -0.7066  0.2550  0.0542
   68WAT     H2  335   1.687   3.704   3.176 -1.8622  2.3890 -0.8308
   68WAT    EPW  336   1.740   3.718   3.108 -0.3783  0.4915 -0.1341
   69WAT      O  337   0.776   2.777   0.973  0.2650  0.3906 -0.1843
   69WAT     H1  338   0.800   2.828   0.896  0.2270 -0.5084 -0.8082
   69WAT     H2  339   0.698   2.728   0.947  0.0793  0.2955  0.5171
   69WAT    EPW  340   0.769   2.777   0.960  0.2355  0.2595 -0.1741
   70WAT      O  341   0.907   1.077   1.460 -0.4040 -0.4976 -0.1711
   70WAT     H1  342   0.904   1.156   1.406 -0.0414 -1.3626 -1.5005
   70WAT     H2  343   0.920   1.110   1.549  1.2410  0.9074 -0.8722
   70WAT    EPW  344   0.908   1.092   1.465 -0.1392 -0.4264 -0.4389
   71WAT      O  345   0.479   3.502   2.319  0.2384 -0.0886 -0.0287
   71WAT     H1  346   0.574   3.514   2.321  0.3404 -0.5639 -1.2072
   71WAT     H2  347   0.443   3.585   2.349  1.0211  0.3406 -0.2775
   71WAT    EPW  348   0.487   3.514   2.323  0.3551 -0.0947 -0.2169
   72WAT      O  349   2.613   2.105   1.443 -0.4404  0.1837  0.2735
   72WAT     H1  350   2.679   2.168   1.470 -0.9135  1.1701 -0.7925
   72WAT     H2  351   2.661   2.023   1.434  0.8169  1.0268 -1.1779
   72WAT    EPW  352   2.628   2.102   1.446 -0.3370  0.4250 -0.0585
   73WAT      O  353   2.960   2.963   2.331  0.0267 -0.6059  0.2004
   73WAT     H1  354   3.026   2.934   2.394  0.7509  3.3918  1.5660
   73WAT     H2  355   2.878   2.965   2.381 -0.0471 -0.4908  0.0765
   73WAT    EPW  356   2.958   2.959   2.345  0.1125 -0.0634  0.3642
   74WAT      O  357   3.032   4.181   0.137  0.1974  0.0659  0.1285
   74WAT     H1  358   3.043   4.103   0.081  0.1307  0.7681 -0.8927
   74WAT     H2  359   3.121   4.207   0.160  0.4298  1.4101 -2.0142
   74WAT    EPW  360   3.045   4.174   0.133  0.2193  0.3358 -0.2888
   75WAT      O  361   2.825   4.025   2.690 -0.3619  0.3956  0.0787
   75WAT     H1  362   2.816   4.091   2.759  1.0258 -0.5961  1.2795
   75WAT     H2  363   2.855   4.075   2.614 -1.4217  1.4382  0.3179
   75WAT    EPW  364   2.828   4.041   2.689 -0.3186  0.4023  0.2686
   76WAT      O  365   0.298   2.229   3.359 -0.2440  0.3771  0.1923
   76WAT     H1  366   0.288   2.267   3.272 -1.4934  0.1292  0.2139
   76WAT     H2  367   0.210   2.230   3.397 -0.7598 -3.7746 -0.3512
   76WAT    EPW  368   0.285   2.234   3.353 -0.4768 -0.2032  0.1235
   77WAT      O  369   2.814   0.317   1.866  0.6862  0.2001 -0.4571
   77WAT     H1  370   2.796   0.241   1.921 -0.8395  0.2958 -0.7867
   77WAT     H2  371   2.789   0.392   1.919  2.0864  0.5044 -0.1736
   77WAT    EPW  372   2.809   0.317   1.880  0.6696  0.2528 -0.4632
   78WAT      O  373   2.090   0.796   2.286 -0.5090 -0.1286  0.0083
   78WAT     H1  374   2.125   0.718   2.243  0.9083 -0.1433  1.1030
   78WAT     H2  375   2.125   0.869   2.235 -2.1900 -0.1601 -1.2804
   78WAT    EPW  376   2.100   0.795   2.274 -0.5438 -0.1347 -0.0173
   79WAT      O  377   0.867   0.792   1.113 -0.5083 -0.0346  0.7453
   79WAT     H1  378   0.958   0.783   1.085 -0.8857 -0.7087 -0.3302
   79WAT     H2  379   0.835   0.869   1.066 -0.0148  1.3308  2.5230
   79WAT    EPW  380   0.875   0.801   1.103 -0.4930  0.0566  0.8379
   80WAT      O  381   2.526   4.249   1.241  0.3564 -0.0094 -0.3415
   80WAT     H1  382   2.567   4.276   1.159  1.1402  1.2369  0.4305
   80WAT     H2  383   2.432   4.252   1.222  0.5280  0.1542 -1.2198
   80WAT    EPW  384   2.519   4.253   1.228  0.4824  0.1766 -0.3555
   81WAT      O  385   0.286   1.522   2.094  0.1122  0.4116 -0.7507
   81WAT     H1  386   0.325   1.606   2.068  1.0708  1.1945  2.6422
   81WAT     H2  387   0.207   1.547   2.142  0.4355 -0.6019  0.3489
   81WAT    EPW  388   0.281   1.537   2.097  0.2813  0.3812 -0.1582
   82WAT      O  389   0.494   0.851   1.348 -0.2972  0.4675  0.2634
   82WAT     H1  390   0.423   0.793   1.374 -0.7432  0.3654 -1.1193
   82WAT     H2  391   0.453   0.936   1.333 -0.5946 -0.0887 -2.6636
   82WAT    EPW  392   0.480   0.855   1.349 -0.3952  0.3807 -0.3050
   83WAT      O  393   2.369   0.632   0.418  0.3145 -0.0163 -0.1767
   83WAT     H1  394   2.376   0.595   0.506  1.6701 -0.7543 -0.5553
   83WAT     H2  395   2.312   0.571   0.371  0.6753 -0.3682 -0.1662
   83WAT    EPW  396   2.362   0.619   0.423  0.5408 -0.1601 -0.2253
   84WAT      O  397   0.312   0.126   0.915  0.7569  0.2822  0.2406
   84WAT     H1  398   0.301   0.183   0.838  0.3061 -0.7917 -0.5171
   84WAT     H2  399   0.383   0.167   0.965  2.1026  0.2007 -1.5075
   84WAT    EPW  400   0.320   0.139   0.911  0.8749  0.1298 -0.0899
   85WAT      O  401   2.214   0.364   0.792  0.0925 -0.3904 -0.2240
   85WAT     H1  402   2.275   0.395   0.725 -0.8036 -1.7044 -1.7200
   85WAT     H2  403   2.236   0.415   0.869 -1.6111  4.4475 -2.5441
   85WAT    EPW  404   2.225   0.375   0.793 -0.2504  0.0744 -0.7273
   86WAT      O  405   3.505   1.907   3.005  0.3438 -0.0892 -0.2372
   86WAT     H1  406   3.550   1.952   3.076 -1.6264 -0.4937  1.3778
   86WAT     H2  407   3.536   1.816   3.010  0.8570  0.0689 -0.4800
   86WAT    EPW  408   3.515   1.901   3.015  0.1516 -0.1217 -0.0562
   87WAT      O  409   0.104   1.527   2.759 -0.2039  0.2259  0.4978
   87WAT     H1  410   0.094   1.479   2.841 -0.2052 -1.2977 -0.3585
   87WAT     H2  411   0.193   1.509   2.730 -0.5696 -0.2223 -0.4026
   87WAT    EPW  412   0.114   1.518   2.766 -0.2523 -0.0342  0.2661
   88WAT      O  413   3.153   1.370   3.407 -0.6421  0.2129  0.1246
   88WAT     H1  414   3.204   1.430   3.461  1.4610 -0.5125 -0.9549
   88WAT     H2  415   3.119   1.305   3.470  0.0382  0.5337  0.8428
   88WAT    EPW  416   3.155   1.369   3.423 -0.2750  0.1596  0.0770
   89WAT      O  417   0.428   2.024   3.195  0.6141  0.6863 -0.0562
   89WAT     H1  418   0.384   1.976   3.265  2.1863 -0.1999  0.3711
   89WAT     H2  419   0.486   2.086   3.241  2.5356 -0.6991 -0.4860
   89WAT    EPW  420   0.430   2.026   3.210  1.0749  0.3867 -0.0565
   90WAT      O  421   3.247   0.466   1.368  0.5928 -0.1863 -0.3478
   90WAT     H1  422   3.254   0.517   1.449 -0.8703 -1.0299  0.3493
   90WAT     H2  423   3.314   0.503   1.311  0.3676  1.7200  0.5385
   90WAT    EPW  424   3.257   0.478   1.371  0.3701 -0.0462 -0.1390
   91WAT      O  425   2.242   3.958   1.011 -0.3633  0.4144 -0.4350
   91WAT     H1  426   2.214   4.036   0.963 -1.4023 -0.4396 -1.2472
   91WAT     H2  427   2.289   3.993   1.087 -0.0459  1.8130 -1.2311
   91WAT    EPW  428   2.245   3.973   1.015 -0.4585  0.4863 -0.6471
   92WAT      O  429   2.704   4.158   2.914 -0.2995 -0.5600 -0.1663
   92WAT     H1  430   2.782   4.206   2.943  1.3431 -1.5169 -2.7136
   92WAT     H2  431   2.638   4.226   2.903  0.8440  0.6190 -0.0466
   92WAT    EPW  432   2.706   4.174   2.916  0.0680 -0.5307 -0.4865
   93WAT      O  433   1.585   1.305   2.320  0.3557 -0.0202  0.2128
   93WAT     H1  434   1.492   1.320   2.301  0.9520  1.4610 -1.8121
   93WAT     H2  435   1.616   1.254   2.245  1.9667  2.7604 -1.1701
   93WAT    EPW  436   1.577   1.300   2.307  0.6468  0.5419 -0.2367
   94WAT      O  437   1.072   0.967   3.892  0.3631 -0.6182  0.3620
   94WAT     H1  438   1.125   0.888   3.897 -1.7081 -2.1823 -1.1305
   94WAT     H2  439   1.131   1.033   3.855  1.4707 -2.0911 -0.5734
   94WAT    EPW  440   1.087   0.965   3.888  0.2360 -1.0188  0.0418
   95WAT      O  441   0.119   2.658   3.047 -0.1221  0.1499  0.0235
   95WAT     H1  442   0.028   2.628   3.040 -0.0456 -0.1887  0.4178
   95WAT     H2  443   0.162   2.591   3.099 -0.2857  1.6067  2.1870
   95WAT    EPW  444   0.113   2.645   3.053 -0.1336  0.2974  0.3608
   96WAT      O  445   1.999   3.147   0.144 -0.2667 -0.6163  0.3781
   96WAT     H1  446   2.094   3.140   0.147  0.1196  2.7087  0.3710
   96WAT     H2  447   1.973   3.161   0.235 -0.7698 -1.5062  0.3815
   96WAT    EPW  448   2.008   3.148   0.156 -0.2821 -0.2951  0.3776
   97WAT      O  449   1.731   3.420   2.765 -0.0880 -0.0585 -0.2288
   97WAT     H1  450   1.662   3.479   2.736 -0.3982  0.0987  0.7948
   97WAT     H2  451   1.721   3.416   2.860  0.6535 -0.8572 -0.1719
   97WAT    EPW  452   1.721   3.427   2.773 -0.0311 -0.1431 -0.0863
   98WAT      O  453   3.239   1.346   2.144  0.4730 -0.4603 -0.5512
   98WAT     H1  454   3.193   1.427   2.164  1.1322  0.7934 -3.6027
   98WAT     H2  455   3.169   1.283   2.122 -0.2545 -1.7639  4.3077
   98WAT    EPW  456   3.224   1.348   2.144  0.4640 -0.4669 -0.3129
   99WAT      O  457   1.120   2.748   3.520  0.1980  0.4301  0.2085
   99WAT     H1  458   1.139   2.658   3.494  0.1139  0.4710  0.0025
   99WAT     H2  459   1.067   2.783   3.448  0.2228  0.6410  0.2923
   99WAT    EPW  460   1.116   2.741   3.507  0.1902  0.4633  0.1924
  100WAT      O  461   2.195   1.466   2.448 -0.0087 -0.2418 -0.6206
  100WAT     H1  462   2.279   1.421   2.438  0.2697  0.5185 -1.9288
  100WAT     H2  463   2.153   1.457   2.363  0.0018  1.8260 -0.8876
  100WAT    EPW  464   2.201   1.459   2.436  0.0294  0.1312 -0.8284
  101WAT      O  465   1.577   1.586   2.384 -0.2451  0.1055 -0.5255
  101WAT     H1  466   1.603   1.494   2.381  0.3028  0.2377 -0.0772
  101WAT     H2  467   1.538   1.603   2.299  1.3282 -0.0497 -1.3037
  101WAT    EPW  468   1.575   1.576   2.373  0.0347  0.1025 -0.5690
  102WAT      O  469   1.899   1.699   3.798  0.3987  0.1761 -0.0446
  102WAT     H1  470   1.872   1.680   3.708  0.5557  0.6741 -0.1985
  102WAT     H2  471   1.976   1.753   3.789  0.2624  0.4480  0.3937
  102WAT    EPW  472   1.905   1.703   3.785  0.4014  0.2777 -0.0071
  103WAT      O  473   1.145   3.813   2.327 -0.1331 -0.0190  0.6873
  103WAT     H1  474   1.236   3.807   2.299 -0.0076 -0.0323  1.1004
  103WAT     H2  475   1.145   3.879   2.396 -0.6058  0.7322 -0.0027
  103WAT    EPW  476   1.157   3.821   2.332 -0.1789  0.0784  0.6508
  104WAT      O  477   1.911   3.072   0.674  0.1397 -0.0901  0.0324
  104WAT     H1  478   1.914   3.106   0.763  1.6564  1.1142 -0.4532
  104WAT     H2  479   1.938   2.980   0.683 -0.1320 -0.1007  0.8424
  104WAT    EPW  480   1.915   3.064   0.687  0.3039  0.0674  0.0752
  105WAT      O  481   2.837   3.344   1.792 -0.1611  0.3053  0.6590
  105WAT     H1  482   2.794   3.268   1.831  0.2185 -0.6012 -0.6502
  105WAT     H2  483   2.926   3.315   1.775 -0.4494  0.4542 -1.3831
  105WAT    EPW  484   2.843   3.330   1.795 -0.1491  0.2054  0.2170
  106WAT      O  485   2.776   0.455   1.479 -0.4600  0.5878 -0.0553
  106WAT     H1  486   2.748   0.480   1.390 -1.9411 -0.1079  0.1784
  106WAT     H2  487   2.857   0.406   1.465 -1.4707 -0.8432 -1.1904
  106WAT    EPW  488   2.783   0.452   1.465 -0.7886  0.3073 -0.1742
  107WAT      O  489   2.058   3.947   1.811 -0.1943 -0.2391  0.2924
  107WAT     H1  490   2.062   3.975   1.719  1.5346  1.1460  0.7365
  107WAT     H2  491   2.117   3.872   1.816  0.4026  0.2315  0.4282
  107WAT    EPW  492   2.066   3.941   1.799  0.1124  0.0056  0.3689
  108WAT      O  493   0.035   3.761   3.305 -0.6280  0.1557  0.3555
  108WAT     H1  494  -0.055   3.792   3.316 -0.7829 -0.4212  0.7025
  108WAT     H2  495   0.030   3.666   3.315  0.0582  0.1417  0.6234
  108WAT    EPW  496   0.023   3.753   3.308 -0.5579  0.0777  0.4366
  109WAT      O  497   2.933   3.113   0.195  0.5807  0.6908  0.0844
  109WAT     H1  498   2.887   3.030   0.201  0.6538  0.5811 -0.7411
  109WAT     H2  499   2.874   3.177   0.235 -0.3858  0.5834 -1.1071
  109WAT    EPW  500   2.919   3.110   0.201  0.4629  0.6622 -0.1816
  110WAT      O  501   2.885   2.231   0.275 -0.2319  0.2369 -0.5178
  110WAT     H1  502   2.852   2.143   0.290  0.1206  0.2593  0.5553
  110WAT     H2  503   2.943   2.223   0.199 -0.3415 -0.4179 -0.5357
  110WAT    EPW  504   2.889   2.218   0.267 -0.1999  0.1535 -0.3786
  111WAT      O  505   3.466   1.791   0.609  0.5442  0.5946 -0.0241
  111WAT     H1  506   3.406   1.864   0.626 -0.5366  0.3165 -2.2052
  111WAT     H2  507   3.461   1.778   0.514  1.2342 -1.8780  0.2083
  111WAT    EPW  508   3.457   1.799   0.599  0.4926  0.2318 -0.2811
  112WAT      O  509   0.567   2.855   2.641 -0.2299  0.4504  0.1267
  112WAT     H1  510   0.644   2.802   2.622  0.5782  1.5961  0.0927
  112WAT     H2  511   0.511   2.798   2.694  0.6760 -0.3775  0.2259
  112WAT    EPW  512   0.570   2.841   2.646 -0.0039  0.4923  0.1353
  113WAT      O  513   0.899   0.376   0.592 -0.0837 -0.2409 -0.0897
  113WAT     H1  514   0.855   0.326   0.661  1.6720 -0.7986  0.6805
  113WAT     H2  515   0.854   0.350   0.511 -1.0334 -0.8935  0.6258
  113WAT    EPW  516   0.887   0.366   0.590  0.0226 -0.4005  0.1062
  114WAT      O  517   2.956   0.442   0.827  0.0497  0.2018 -0.1082
  114WAT     H1  518   3.026   0.471   0.887 -0.7345  0.9077  0.4926
  114WAT     H2  519   2.923   0.523   0.789  0.3398 -0.2237 -1.3007
  114WAT    EPW  520   2.961   0.457   0.830 -0.0154  0.2388 -0.1862
  115WAT      O  521   2.173   3.436   3.901 -0.0089 -0.1053  0.7427
  115WAT     H1  522   2.191   3.343   3.914 -0.6759 -0.3712 -0.1238
  115WAT     H2  523   2.078   3.444   3.911  0.0173  0.4486  0.5973
  115WAT    EPW  524   2.163   3.425   3.904 -0.0934 -0.0673  0.6092
  116WAT      O  525   3.064   4.238   3.325  0.4672 -0.2096 -0.0982
  116WAT     H1  526   3.091   4.324   3.359  0.1514 -0.5728  1.1097
  116WAT     H2  527   2.974   4.228   3.356  0.3910 -0.8419 -0.5202
  116WAT    EPW  528   3.056   4.248   3.334  0.4155 -0.3409  0.0054
  117WAT      O  529   2.104   3.942   0.509  0.1358  0.2510 -0.1956
  117WAT     H1  530   2.040   3.932   0.580 -0.7463  0.9403 -0.8608
  117WAT     H2  531   2.186   3.961   0.554  0.2335 -2.0500  0.7593
  117WAT    EPW  532   2.106   3.943   0.525  0.0323  0.0385 -0.1574
  118WAT      O  533   3.304   1.306   1.662  0.6137  0.1453  0.3906
  118WAT     H1  534   3.322   1.261   1.744 -1.9068  0.6949  1.3046
  118WAT     H2  535   3.239   1.251   1.618  0.6294  0.7651 -0.4313
  118WAT    EPW  536   3.298   1.293   1.667  0.2834  0.2995  0.4028
  119WAT      O  537   0.940   3.342   0.423  0.0304  0.4183 -0.8697
  119WAT     H1  538   0.879   3.299   0.483 -0.0329  1.0234 -0.4993
  119WAT     H2  539   0.928   3.435   0.439 -0.0834  0.5958 -1.9237
  119WAT    EPW  540   0.930   3.348   0.433  0.0071  0.5215 -0.9599
  120WAT      O  541   0.031   2.124   2.092  0.2716  0.5105 -0.6201
  120WAT     H1  542   0.057   2.032   2.089  0.6868  0.6470 -1.5085
  120WAT     H2  543   0.062   2.154   2.178  0.6238 -0.0381 -0.5490
  120WAT    EPW  544   0.039   2.116   2.103  0.3728  0.4562 -0.7279
  121WAT      O  545   2.470   2.080   0.071  0.2572  0.0126  0.1103
  121WAT     H1  546   2.471   1.990   0.037  2.5511  0.4623 -1.2185
  121WAT     H2  547   2.471   2.135  -0.007  0.1622  1.1965  0.9127
  121WAT    EPW  548   2.470   2.075   0.056  0.5472  0.2281  0.0409
  122WAT      O  549   3.440   2.228   0.473  0.6136  0.0837  0.1553
  122WAT     H1  550   3.375   2.190   0.533  0.3378 -0.7415 -0.6450
  122WAT     H2  551   3.401   2.218   0.386  1.0514  1.1801 -0.1843
  122WAT    EPW  552   3.426   2.222   0.470  0.6350  0.1195  0.0049
  123WAT      O  553   3.202   2.096   3.612  0.0083  0.4871  0.0073
  123WAT     H1  554   3.202   2.009   3.652  2.0749 -0.3018 -1.5386
  123WAT     H2  555   3.271   2.144   3.659 -1.2472  1.4117  0.9792
  123WAT    EPW  556   3.211   2.091   3.624  0.1153  0.5050 -0.0684
  124WAT      O  557   3.045   0.873   2.007 -0.0928  0.2941  0.0222
  124WAT     H1  558   3.132   0.837   1.989 -1.1089 -2.3487 -0.0287
  124WAT     H2  559   3.001   0.873   1.922 -1.4158 -2.2441  0.6081
  124WAT    EPW  560   3.050   0.869   1.993 -0.4013 -0.3893  0.0927
  125WAT      O  561   2.073   0.734   1.208 -0.2244 -0.1301 -0.4270
  125WAT     H1  562   2.068   0.675   1.132 -1.1076  0.3192 -0.7385
  125WAT     H2  563   2.040   0.817   1.174 -0.2723  0.1739  0.3627
  125WAT    EPW  564   2.068   0.737   1.193 -0.3472 -0.0307 -0.3639
  126WAT      O  565   0.941   0.826   2.280 -0.2308 -0.1250 -0.1353
  126WAT     H1  566   0.960   0.751   2.336 -0.2589 -0.0417 -0.0149
  126WAT     H2  567   0.847   0.820   2.263 -0.0380 -0.7504 -1.0358
  126WAT    EPW  568   0.931   0.815   2.285 -0.2091 -0.1965 -0.2382
  127WAT      O  569   3.549   1.436   1.525  0.1957  0.0128 -0.3543
  127WAT     H1  570   3.496   1.399   1.595 -0.5806 -4.0330 -2.7302
  127WAT     H2  571   3.631   1.387   1.529  1.1837  1.5615 -0.7424
  127WAT    EPW  572   3.553   1.425   1.535  0.2236 -0.3166 -0.7189
  128WAT      O  573   2.619   0.456   3.194 -0.2355  0.2541  0.0834
  128WAT     H1  574   2.583   0.526   3.139  2.1819 -0.5185 -2.7925
  128WAT     H2  575   2.662   0.502   3.266  0.8368  1.8166 -1.4544
  128WAT    EPW  576   2.620   0.471   3.196  0.2248  0.3583 -0.4988
  129WAT      O  577   0.206   3.027   2.109 -0.4487 -0.0045 -0.0700
  129WAT     H1  578   0.275   2.986   2.161  0.7271  1.7091 -0.1677
  129WAT     H2  579   0.221   3.121   2.121 -0.7071  0.4424 -2.7354
  129WAT    EPW  580   0.217   3.034   2.117 -0.3277  0.2805 -0.4344
  130WAT      O  581   3.479   0.035   3.325  0.6529 -0.1573 -0.9089
  130WAT     H1  582   3.459  -0.024   3.398 -0.0241 -2.0362 -2.4990
  130WAT     H2  583   3.573   0.023   3.309  0.6444 -0.3434 -0.8193
  130WAT    EPW  584   3.489   0.025   3.332  0.5625 -0.4297 -1.1068
  131WAT      O  585   2.515   2.789   1.655 -0.0239  0.4639  0.6619
  131WAT     H1  586   2.449   2.727   1.687  0.0156 -1.6967 -2.8228
  131WAT     H2  587   2.466   2.854   1.605  0.2619  0.3591  0.2314
  131WAT    EPW  588   2.500   2.789   1.653  0.0190  0.1652  0.1455
  132WAT      O  589   0.682   0.664   1.669 -0.2565 -0.4038 -0.0408
  132WAT     H1  590   0.695   0.653   1.763  0.8362 -0.5448 -0.2016
  132WAT     H2  591   0.697   0.757   1.653 -0.8467 -0.2982 -0.0273
  132WAT    EPW  592   0.686   0.675   1.679 -0.1902 -0.4084 -0.0602
  133WAT      O  593   2.595   3.075   0.165  0.6181  0.1301  0.1807
  133WAT     H1  594   2.561   3.141   0.105 -0.1404 -0.4209 -0.0132
  133WAT     H2  595   2.606   3.121   0.248 -1.1743  0.2153  0.4159
  133WAT    EPW  596   2.592   3.090   0.168  0.2816  0.0687  0.1861
  134WAT      O  597   1.708   2.832   0.699  0.2700  0.0915  0.0841
  134WAT     H1  598   1.693   2.866   0.787  0.2128  0.0710  0.0826
  134WAT     H2  599   1.625   2.847   0.653 -0.6984 -2.4354  0.8539
  134WAT    EPW  600   1.695   2.838   0.704  0.1347 -0.2445  0.1854
  135WAT      O  601   0.243   2.893   3.071 -0.2974 -0.5383 -0.0239
  135WAT     H1  602   0.303   2.877   3.144 -1.0172  0.4026  0.8051
  135WAT     H2  603   0.198   2.810   3.059 -0.0095 -0.7713  0.4588
  135WAT    EPW  604   0.245   2.880   3.079 -0.3544 -0.4450  0.1491
  136WAT      O  605   2.178   3.771   1.488 -0.4031  0.5783 -0.2027
  136WAT     H1  606   2.110   3.729   1.540 -2.4427  2.3674 -1.2497
  136WAT     H2  607   2.227   3.823   1.550 -0.0109 -0.6817  0.5660
  136WAT    EPW  608   2.175   3.772   1.503 -0.6204  0.6481 -0.2394
  137WAT      O  609   0.293   1.969   2.051  0.0227  0.3769 -0.5747
  137WAT     H1  610   0.247   1.886   2.039  0.9659 -0.1705 -0.5821
  137WAT     H2  611   0.367   1.946   2.107 -0.9545  1.6658  1.3574
  137WAT    EPW  612   0.297   1.955   2.057  0.0182  0.4747 -0.3209
  138WAT      O  613   3.672   0.926   1.855  0.6974 -0.1482 -0.2118
  138WAT     H1  614   3.587   0.967   1.871  1.6694  1.8729  0.1276
  138WAT     H2  615   3.676   0.853   1.917 -0.6176 -0.0310  0.0284
  138WAT    EPW  616   3.662   0.922   1.865  0.6521  0.1338 -0.1353
  139WAT      O  617   1.220   0.688   2.265  0.2458 -0.1545  0.5978
  139WAT     H1  618   1.197   0.766   2.216  1.3457  0.9377  1.7167
  139WAT     H2  619   1.313   0.675   2.247  0.5640  0.0066  1.9650
  139WAT    EPW  620   1.229   0.696   2.256  0.4329  0.0108  0.9257
  140WAT      O  621   1.758   3.334   1.604 -0.1902 -0.1985  0.4798
  140WAT     H1  622   1.697   3.409   1.604 -0.1212 -0.1163 -0.7900
  140WAT     H2  623   1.747   3.295   1.517  2.2194  0.3618 -0.1490
  140WAT    EPW  624   1.748   3.339   1.592  0.1367 -0.1138  0.2294
  141WAT      O  625   3.465   1.920   2.219  0.3289  0.0213  0.0645
  141WAT     H1  626   3.460   1.848   2.283  1.4636  0.3421  0.5375
  141WAT     H2  627   3.506   1.992   2.267 -0.8963  1.0469 -0.3703
  141WAT    EPW  628   3.470   1.920   2.234  0.3169  0.1989  0.0695
  142WAT      O  629   1.613   3.959   1.026  0.3130  0.1380  0.0250
  142WAT     H1  630   1.693   3.907   1.041  0.5169  0.5970  0.5788
  142WAT     H2  631   1.607   4.016   1.103  0.6137  1.6192 -1.0003
  142WAT    EPW  632   1.623   3.960   1.038  0.3796  0.3939 -0.0372
  143WAT      O  633   1.021   1.952   2.677  0.1816  0.5977  0.1834
  143WAT     H1  634   1.081   1.885   2.644  0.3489  1.0062 -0.3542
  143WAT     H2  635   0.977   1.910   2.751 -0.1060 -0.2881 -0.4739
  143WAT    EPW  636   1.023   1.937   2.683  0.1658  0.5348  0.0258
  144WAT      O  637   2.673   3.765   2.960  0.1655  0.1147 -0.2977
  144WAT     H1  638   2.684   3.818   3.039 -0.6174  1.0635 -0.8059
  144WAT     H2  639   2.627   3.822   2.899  0.2124 -0.8149 -1.2311
  144WAT    EPW  640   2.668   3.779   2.963  0.0684  0.1172 -0.4878
  145WAT      O  641   0.266   0.413   1.178 -0.1436  0.1645 -0.1972
  145WAT     H1  642   0.343   0.394   1.124  0.0591 -1.7970  0.6974
  145WAT     H2  643   0.195   0.424   1.114  0.8910  2.4999 -1.0686
  145WAT    EPW  644   0.267   0.412   1.162  0.0196  0.2138 -0.1941
  146WAT      O  645   3.600   2.463   3.147 -0.4129  0.5265 -0.2526
  146WAT     H1  646   3.550   2.405   3.089  2.1719 -1.8455 -0.2976
  146WAT     H2  647   3.541   2.537   3.163 -2.8908 -0.8339 -2.3298
  146WAT    EPW  648   3.585   2.465   3.142 -0.3988  0.0342 -0.5325
  147WAT      O  649   2.259   1.114   2.881 -0.1550  0.2121  0.0586
  147WAT     H1  650   2.290   1.204   2.885  0.4191  0.0747 -0.9331
  147WAT     H2  651   2.325   1.063   2.926 -1.0458  0.3973  1.6449
  147WAT    EPW  652   2.271   1.119   2.887 -0.1968  0.2184  0.1371
  148WAT      O  653   0.258   0.952   3.425  0.1427 -0.6438  0.2920
  148WAT     H1  654   0.325   0.998   3.374  0.6449 -0.9704  0.6463
  148WAT     H2  655   0.185   0.942   3.365  0.9909 -1.6675 -0.6254
  148WAT    EPW  656   0.257   0.957   3.411  0.3208 -0.8219  0.2177
  149WAT      O  657   2.056   3.474   0.309  0.2326  0.2356  0.2281
  149WAT     H1  658   2.121   3.443   0.247  1.7150 -1.1799  2.3441
  149WAT     H2  659   1.972   3.450   0.270  1.0067  0.6936 -1.8396
  149WAT    EPW  660   2.054   3.466   0.296  0.5303  0.1093  0.2345
  150WAT      O  661   2.624   0.284   3.460 -0.0144  0.4318 -0.5533
  150WAT     H1  662   2.531   0.305   3.454 -0.0533  0.1410 -0.9877
  150WAT     H2  663   2.639   0.220   3.390  0.6249  0.8995 -0.8546
  150WAT    EPW  664   2.614   0.278   3.450  0.0648  0.4551 -0.6504
  151WAT      O  665   0.079   1.629   0.604 -0.7010  0.1028  0.0241
  151WAT     H1  666   0.030   1.675   0.671  1.1742  0.7119  1.0663
  151WAT     H2  667   0.101   1.696   0.540 -0.5081  0.0283  0.0119
  151WAT    EPW  668   0.076   1.644   0.605 -0.4283  0.1733  0.1600
  152WAT      O  669   2.054   0.185   0.050 -0.3228 -0.1259 -0.1738
  152WAT     H1  670   1.977   0.128   0.051  0.0640 -0.6662  1.0532
  152WAT     H2  671   2.084   0.186   0.141  1.1163  0.0795 -0.6270
  152WAT    EPW  672   2.048   0.178   0.062 -0.0820 -0.1701 -0.0717
  153WAT      O  673   0.317   0.685   2.803  0.1690  0.2998  0.4717
  153WAT     H1  674   0.372   0.735   2.743 -1.3903  0.4969 -0.8437
  153WAT     H2  675   0.313   0.740   2.882 -0.2794  1.5493 -0.3850
  153WAT    EPW  676   0.324   0.699   2.806 -0.0958  0.4906  0.1852
  154WAT      O  677   2.141   2.184   2.467 -0.4287 -0.2956 -0.1164
  154WAT     H1  678   2.138   2.278   2.448 -1.2937 -0.4372 -0.7218
  154WAT     H2  679   2.087   2.144   2.399 -0.7224 -1.1572  0.6063
  154WAT    EPW  680   2.134   2.191   2.456 -0.5815 -0.4279 -0.1009
  155WAT      O  681   1.521   2.439   2.731 -0.2287 -0.6484 -0.0944
  155WAT     H1  682   1.493   2.530   2.725 -2.8449 -1.4256 -0.7559
  155WAT     H2  683   1.579   2.437   2.808 -0.8801  1.3766  0.5045
  155WAT    EPW  684   1.525   2.450   2.741 -0.6597 -0.4838 -0.1027
  156WAT      O  685   2.951   1.968   2.264 -0.1924 -0.0608 -0.2596
  156WAT     H1  686   3.033   1.930   2.230  1.5388  0.5416  2.9007
  156WAT     H2  687   2.957   2.060   2.240  0.2097  0.0428  0.2350
  156WAT    EPW  688   2.963   1.975   2.256  0.0890  0.0323  0.2224
  157WAT      O  689   0.666   0.300   1.964  0.2156 -0.0191 -0.4263
  157WAT     H1  690   0.642   0.312   2.055  1.8407 -1.3932  0.2358
  157WAT     H2  691   0.596   0.342   1.915 -0.4192  1.2234  1.4431
  157WAT    EPW  692   0.654   0.307   1.969  0.3462 -0.0364 -0.0924
  158WAT      O  693   3.438   0.043   1.563 -0.2183 -0.0791  0.1992
  158WAT     H1  694   3.359   0.060   1.615 -0.8877  0.5555 -0.9631
  158WAT     H2  695   3.445   0.119   1.505  0.1119 -1.0397 -1.0854
  158WAT    EPW  696   3.429   0.055   1.562 -0.2630 -0.1221 -0.1235
  159WAT      O  697   2.263   4.268   1.013  0.1752  0.1181 -0.1931
  159WAT     H1  698   2.259   4.224   0.928  1.2940  0.4995 -0.4699
  159WAT     H2  699   2.183   4.242   1.058 -0.3600 -0.2140 -1.3072
  159WAT    EPW  700   2.252   4.259   1.008  0.2522  0.1246 -0.3766
  160WAT      O  701   3.381   3.670   2.952  0.3917  0.2691  0.2249
  160WAT     H1  702   3.438   3.748   2.949  0.2589  0.3492 -1.2405
  160WAT     H2  703   3.359   3.654   2.860  1.2104 -2.0901  0.3679
  160WAT    EPW  704   3.386   3.678   2.939  0.4821 -0.0315  0.0505
  161WAT      O  705   3.396   3.534   3.397  0.2396  0.5459 -0.7565
  161WAT     H1  706   3.490   3.527   3.379 -0.0157 -1.2327 -1.6746
  161WAT     H2  707   3.386   3.616   3.446  2.4359  0.1457  0.4791
  161WAT    EPW  708   3.407   3.544   3.401  0.4956  0.2585 -0.7146
  162WAT      O  709   0.037   0.035   0.965  0.2837  0.1461 -0.8298
  162WAT     H1  710  -0.039   0.092   0.953  0.0535 -0.4408 -2.3869
  162WAT     H2  711   0.112   0.093   0.962 -0.0729  0.6723  0.2072
  162WAT    EPW  712   0.037   0.050   0.963  0.2063  0.1381 -0.8984
  163WAT      O  713   2.507   1.440   0.605 -0.0204  0.3131  0.1560
  163WAT     H1  714   2.546   1.517   0.563  0.6605 -1.2576 -2.3046
  163WAT     H2  715   2.418   1.437   0.571 -0.5244  0.7680  1.3807
  163WAT    EPW  716   2.501   1.450   0.595  0.0029  0.1660 -0.0070
  164WAT      O  717   2.296   3.566   0.163  0.4805  0.3841  0.2435
  164WAT     H1  718   2.260   3.644   0.206 -0.2557 -0.6918  1.6488
  164WAT     H2  719   2.238   3.552   0.088 -0.1393  0.4869  0.6937
  164WAT    EPW  720   2.284   3.574   0.158  0.3017  0.2558  0.4882
  165WAT      O  721   0.658   3.216   3.959 -0.6843  0.9811  0.2119
  165WAT     H1  722   0.580   3.186   3.914 -0.6317  0.3066  0.5690
  165WAT     H2  723   0.693   3.139   4.002  0.1331  1.2906  0.1318
  165WAT    EPW  724   0.652   3.202   3.959 -0.5695  0.9329  0.2484
  166WAT      O  725   3.456   2.228   3.579  0.1422 -0.0259  0.0570
  166WAT     H1  726   3.516   2.290   3.537  0.5371  0.0542  0.7072
  166WAT     H2  727   3.443   2.159   3.515 -0.5494  0.8784 -0.8037
  166WAT    EPW  728   3.462   2.227   3.565  0.1031  0.1040  0.0292
  167WAT      O  729   0.984   2.933   1.976 -0.2218  0.0833 -0.0534
  167WAT     H1  730   1.029   2.898   2.052 -0.6094 -0.9840 -0.3022
  167WAT     H2  731   0.925   2.999   2.012  0.6680  0.6453  0.3951
  167WAT    EPW  732   0.982   2.937   1.991 -0.1556  0.0166 -0.0270
  168WAT      O  733   2.309   0.750   2.478 -0.0333 -0.2747  0.2724
  168WAT     H1  734   2.220   0.747   2.441 -0.2200 -0.6124  0.7341
  168WAT     H2  735   2.316   0.669   2.529  0.8268 -0.6291 -0.3912
  168WAT    EPW  736   2.298   0.739   2.479  0.0555 -0.3660  0.2458
  169WAT      O  737   1.430   0.991   3.587  0.0098  0.0334  0.1639
  169WAT     H1  738   1.376   0.976   3.510  0.9897  0.1026 -0.5633
  169WAT     H2  739   1.461   0.905   3.613 -0.5390 -0.0219  0.6615
  169WAT    EPW  740   1.427   0.978   3.580  0.0667  0.0352  0.1336
  170WAT      O  741   2.994   1.712   1.579 -0.3008 -0.1332  0.2390
  170WAT     H1  742   3.009   1.741   1.669 -3.2994  1.1268  0.4359
  170WAT     H2  743   3.082   1.701   1.542  0.9895  0.8193  2.8363
  170WAT    EPW  744   3.008   1.714   1.586 -0.5261  0.1586  0.6076
  171WAT      O  745   0.889   2.869   1.665 -0.2476  0.0298 -0.9197
  171WAT     H1  746   0.815   2.925   1.641  1.0012  1.4026 -1.6955
  171WAT     H2  747   0.926   2.910   1.743  0.7953  0.4292 -1.6087
  171WAT    EPW  748   0.884   2.881   1.672  0.0546  0.2635 -1.1129
  172WAT      O  749   1.562   3.055   3.220  0.0124 -0.6825 -0.1585
  172WAT     H1  750   1.490   3.116   3.235  1.3257  0.9631 -0.1589
  172WAT     H2  751   1.544   2.981   3.278 -1.4910 -0.1795  0.0606
  172WAT    EPW  752   1.550   3.054   3.229 -0.0127 -0.3991 -0.1296
  173WAT      O  753   2.926   2.038   2.887 -0.3001  0.4241 -0.3143
  173WAT     H1  754   2.971   2.100   2.944 -0.4986 -0.0516  0.3694
  173WAT     H2  755   2.924   2.081   2.801  0.3144  0.9907 -0.0478
  173WAT    EPW  756   2.931   2.052   2.883 -0.2452  0.4361 -0.1890
  174WAT      O  757   2.494   3.081   2.122 -0.1535  0.2130 -0.1037
  174WAT     H1  758   2.513   2.989   2.101 -2.6222 -0.5025  0.3972
  174WAT     H2  759   2.467   3.079   2.214 -0.2606  1.4383 -0.0997
  174WAT    EPW  760   2.493   3.068   2.132 -0.4933  0.2802 -0.0371
  175WAT      O  761   2.439   0.425   0.624 -0.0951  0.3984 -0.0827
  175WAT     H1  762   2.526   0.425   0.663 -0.2557 -1.2839  0.3432
  175WAT     H2  763   2.442   0.356   0.558 -1.3841 -0.4022  0.6524
  175WAT    EPW  764   2.451   0.416   0.621 -0.2863  0.0709  0.0704
  176WAT      O  765   1.726   3.233   3.348  0.2319 -0.0063  0.2092
  176WAT     H1  766   1.674   3.170   3.299 -1.3427  0.5741  1.0770
  176WAT     H2  767   1.694   3.227   3.437  1.2022  0.8612  0.6361
  176WAT    EPW  768   1.715   3.224   3.353  0.1522  0.1847  0.3800
  177WAT      O  769   2.611   2.685   0.394  0.3136  0.0633  0.3607
  177WAT     H1  770   2.623   2.600   0.351 -1.4444  1.2279 -2.7120
  177WAT     H2  771   2.519   2.684   0.422  0.0642  1.1915 -0.3648
  177WAT    EPW  772   2.600   2.674   0.392  0.0488  0.3657 -0.1403
  178WAT      O  773   1.530   2.463   1.846 -0.4387 -0.4608  0.3396
  178WAT     H1  774   1.513   2.380   1.890 -0.1029 -0.5847  0.2356
  178WAT     H2  775   1.458   2.472   1.784 -0.9986 -0.2133  1.0089
  178WAT    EPW  776   1.518   2.453   1.844 -0.4683 -0.4445  0.4142
  179WAT      O  777   0.732   3.436   3.604  0.1680 -0.0442  0.1782
  179WAT     H1  778   0.682   3.439   3.685  1.3024  1.3361  0.8610
  179WAT     H2  779   0.798   3.368   3.619  0.7723  0.6426  0.6628
  179WAT    EPW  780   0.734   3.427   3.616  0.3973  0.2284  0.3322
  180WAT      O  781   2.095   0.158   1.373  0.3650 -0.1135 -0.1335
  180WAT     H1  782   2.156   0.084   1.377 -1.7024 -1.8868  1.5461
  180WAT     H2  783   2.025   0.127   1.316 -0.8774  0.2321  1.1586
  180WAT    EPW  784   2.094   0.144   1.366 -0.0715 -0.3018  0.2585
  181WAT      O  785   3.325   1.636   2.698 -0.0427 -0.0785  0.2650
  181WAT     H1  786   3.355   1.562   2.751  0.6826  0.1776  0.2269
  181WAT     H2  787   3.396   1.700   2.704 -0.0619  0.0637 -0.8126
  181WAT    EPW  788   3.338   1.635   2.706  0.0504 -0.0260  0.1178
  182WAT      O  789   1.930   1.359   2.009  0.3836 -0.8576  0.4523
  182WAT     H1  790   1.844   1.317   2.019 -0.0185 -0.0934  0.2916
  182WAT     H2  791   1.911   1.442   1.965  1.2125 -0.6954  0.3835
  182WAT    EPW  792   1.916   1.364   2.004  0.4399 -0.7354  0.4220
  183WAT      O  793   1.950   0.045   0.465  0.4450 -1.2320 -0.5020
  183WAT     H1  794   1.895  -0.033   0.452 -0.6407 -0.3936 -1.0436
  183WAT     H2  795   1.944   0.093   0.383 -0.3456  0.3157  0.4105
  183WAT    EPW  796   1.942   0.041   0.453  0.1975 -0.9173 -0.4530
  184WAT      O  797   0.628   0.974   1.579  0.2777  0.0033  0.1360
  184WAT     H1  798   0.566   0.916   1.534  0.9827 -2.3860  2.0124
  184WAT     H2  799   0.688   1.003   1.510 -1.3171  0.2213 -1.2308
  184WAT    EPW  800   0.627   0.970   1.564  0.1603 -0.2831  0.2032
  185WAT      O  801   0.721   3.569   0.287 -0.4822  0.0696  0.0857
  185WAT     H1  802   0.741   3.624   0.211 -1.2593  0.9107  0.4722
  185WAT     H2  803   0.800   3.573   0.340 -0.0834 -0.1865 -0.4768
  185WAT    EPW  804   0.734   3.577   0.284 -0.5321  0.1468  0.0625
  186WAT      O  805   0.866   2.423   1.729 -0.0931  0.2271  0.1223
  186WAT     H1  806   0.775   2.452   1.732 -0.0728  0.2752  0.2901
  186WAT     H2  807   0.866   2.352   1.665 -0.0700  0.8406 -0.5708
  186WAT    EPW  808   0.854   2.417   1.721 -0.0874  0.3144  0.0530
  187WAT      O  809   0.722   3.087   0.899  0.1196 -0.5435  0.3858
  187WAT     H1  810   0.770   3.159   0.940 -0.0258 -0.9501  1.2994
  187WAT     H2  811   0.662   3.056   0.967 -0.7694 -0.6663 -0.4222
  187WAT    EPW  812   0.720   3.092   0.913 -0.0168 -0.6133  0.3997
  188WAT      O  813   2.643   4.202   3.588 -0.5631 -0.3573 -0.0452
  188WAT     H1  814   2.672   4.293   3.595 -2.3716  0.4241 -1.7798
  188WAT     H2  815   2.719   4.151   3.614  0.5045  1.6262  1.0096
  188WAT    EPW  816   2.657   4.208   3.592 -0.6608  0.0073 -0.1349
  189WAT      O  817   1.425   3.785   3.671 -0.1746  0.1881 -0.1233
  189WAT     H1  818   1.503   3.829   3.639 -0.6288 -0.2647 -1.9739
  189WAT     H2  819   1.361   3.794   3.600 -1.1799 -1.0265  0.5768
  189WAT    EPW  820   1.427   3.792   3.657 -0.3671 -0.0318 -0.2750
  190WAT      O  821   3.632   2.003   0.495  0.3774 -0.2098  0.6624
  190WAT     H1  822   3.577   1.947   0.550  0.2839 -0.5414  0.2403
  190WAT     H2  823   3.595   2.091   0.505  0.2905 -0.2889  1.0350
  190WAT    EPW  824   3.620   2.007   0.503  0.3536 -0.2640  0.6559
  191WAT      O  825   2.624   2.592   3.208 -0.2500  0.2716  0.8331
  191WAT     H1  826   2.632   2.615   3.115 -0.0149 -0.9725  0.5262
  191WAT     H2  827   2.635   2.497   3.210 -0.9219  0.2021  2.0661
  191WAT    EPW  828   2.626   2.583   3.196 -0.3076  0.0983  0.9552
  192WAT      O  829   2.594   0.481   2.454  0.0040 -0.5591 -0.1108
  192WAT     H1  830   2.680   0.443   2.438  0.2891  0.3695 -0.9633
  192WAT     H2  831   2.608   0.575   2.444 -0.9617 -0.3390  0.4900
  192WAT    EPW  832   2.607   0.489   2.450 -0.0857 -0.4076 -0.1440
  193WAT      O  833   0.446   0.178   2.161 -0.1318 -0.2077  0.3221
  193WAT     H1  834   0.499   0.255   2.183  0.8898 -1.2695  1.8144
  193WAT     H2  835   0.423   0.140   2.246 -2.1350 -0.5882 -0.3338
  193WAT    EPW  836   0.450   0.183   2.175 -0.2613 -0.3979  0.4324
  194WAT      O  837   0.380   1.956   0.258  0.2960 -0.4468  0.4559
  194WAT     H1  838   0.356   1.944   0.166  0.0026 -0.2864  0.5116
  194WAT     H2  839   0.474   1.938   0.261  0.2649 -0.6595  0.1624
  194WAT    EPW  840   0.389   1.952   0.246  0.2532 -0.4537  0.4245
  195WAT      O  841   3.299   1.351   0.448 -0.2365 -0.4176  0.6193
  195WAT     H1  842   3.339   1.405   0.517  0.8194 -0.3610 -0.0083
  195WAT     H2  843   3.374   1.313   0.402 -0.9356 -0.7950 -0.2250
  195WAT    EPW  844   3.314   1.353   0.451 -0.1894 -0.4599  0.4252
  196WAT      O  845   3.523   1.084   1.544 -0.4149 -0.4243 -0.0969
  196WAT     H1  846   3.460   1.129   1.599 -0.2791 -0.5535  0.1682
  196WAT     H2  847   3.495   1.102   1.455  1.1510  2.4535 -0.1262
  196WAT    EPW  848   3.511   1.092   1.540 -0.1904 -0.0618 -0.0658
  197WAT      O  849   3.269   1.579   1.565  0.0882 -0.0960  0.1815
  197WAT     H1  850   3.317   1.662   1.570 -0.8643  0.5240 -0.7396
  197WAT     H2  851   3.327   1.516   1.608  0.7208  1.0837  1.1215
  197WAT    EPW  852   3.283   1.582   1.572  0.0460  0.1414  0.1840
  198WAT      O  853   2.687   2.711   2.375  0.2451 -0.1953 -0.1323
  198WAT     H1  854   2.677   2.780   2.441 -2.0712 -1.2651  0.7347
  198WAT     H2  855   2.766   2.664   2.401  1.0018  1.1707  0.1395
  198WAT    EPW  856   2.696   2.714   2.387  0.0394 -0.1563  0.0179
  199WAT      O  857   3.287   0.646   3.303 -0.0367  0.3743  0.0388
  199WAT     H1  858   3.259   0.575   3.246  0.8280 -0.2069  0.3192
  199WAT     H2  859   3.290   0.607   3.390  2.9741 -0.0278 -0.1473
  199WAT    EPW  860   3.284   0.632   3.307  0.4745  0.2446  0.0512
  200WAT      O  861   3.493   2.566   1.382  0.3006  0.1907 -0.1418
  200WAT     H1  862   3.553   2.553   1.308  0.0016  1.8293 -0.7162
  200WAT     H2  863   3.445   2.483   1.388  1.0638 -0.3510 -1.1095
  200WAT    EPW  864   3.495   2.553   1.373  0.3618  0.3354 -0.3452
  201WAT      O  865   2.383   3.667   1.732  0.1706 -0.5295  0.2815
  201WAT     H1  866   2.358   3.645   1.642  0.5761 -1.2376  0.3355
  201WAT     H2  867   2.462   3.616   1.748  0.1416 -0.3545  1.0207
  201WAT    EPW  868   2.390   3.657   1.722  0.2202 -0.5998  0.3861
  202WAT      O  869   2.722   1.876   1.295 -0.2234 -0.7883  0.7487
  202WAT     H1  870   2.670   1.907   1.220  1.6542 -0.6219 -0.5526
  202WAT     H2  871   2.807   1.917   1.283  0.4105 -1.5387  2.4843
  202WAT    EPW  872   2.726   1.885   1.283  0.1078 -0.8653  0.8060
  203WAT      O  873   2.612   0.764   2.079 -0.3960  0.2459 -0.4319
  203WAT     H1  874   2.688   0.744   2.134 -0.3233  1.8602  0.1080
  203WAT     H2  875   2.579   0.847   2.114 -1.6849  0.1744 -1.4341
  203WAT    EPW  876   2.618   0.772   2.091 -0.5564  0.4494 -0.4929
  204WAT      O  877   1.743   1.430   1.546 -0.2719 -0.1985 -0.2069
  204WAT     H1  878   1.722   1.391   1.461  1.6418 -3.6402  0.6811
  204WAT     H2  879   1.816   1.489   1.528 -0.4592 -0.2196 -1.0867
  204WAT    EPW  880   1.750   1.432   1.532 -0.0442 -0.6552 -0.2058
  205WAT      O  881   0.017   0.131   0.644 -0.1202 -0.0688  0.0511
  205WAT     H1  882  -0.032   0.142   0.725  0.2207 -1.2885  0.4392
  205WAT     H2  883  -0.049   0.138   0.575 -0.7379 -0.9411  0.5285
  205WAT    EPW  884   0.002   0.134   0.645 -0.1567 -0.3447  0.1653
  206WAT      O  885   0.153   1.835   0.415  0.0223 -0.0052 -0.1734
  206WAT     H1  886   0.069   1.877   0.431 -1.3230 -0.9637 -3.6672
  206WAT     H2  887   0.209   1.905   0.381 -0.3957  0.0700 -0.7210
  206WAT    EPW  888   0.149   1.850   0.412 -0.2103 -0.1217 -0.7064
  207WAT      O  889   1.260   0.407   3.822  0.3858  0.3041 -1.1060
  207WAT     H1  890   1.241   0.497   3.851  0.7142 -0.1764  0.7644
  207WAT     H2  891   1.175   0.363   3.822  0.5721 -0.1947  1.1718
  207WAT    EPW  892   1.247   0.413   3.826  0.4537  0.1749 -0.5589
  208WAT      O  893   2.292   4.213   1.811  0.5620 -0.7009 -0.0659
  208WAT     H1  894   2.378   4.252   1.799  0.1788  0.3687  0.4980
  208WAT     H2  895   2.304   4.120   1.789  1.0690  0.0147 -3.4744
  208WAT    EPW  896   2.305   4.206   1.806  0.5783 -0.4655 -0.4411
  209WAT      O  897   3.081   2.148   0.095  0.4781 -0.3307 -0.1235
  209WAT     H1  898   3.082   2.074   0.035 -1.5741  0.4300 -1.2056
  209WAT     H2  899   3.114   2.222   0.044  1.2374 -0.2069  0.5241
  209WAT    EPW  900   3.085   2.148   0.081  0.3076 -0.2140 -0.1808
  210WAT      O  901   3.009   0.615   1.654  0.0438  0.1405  0.0304
  210WAT     H1  902   2.984   0.559   1.581  0.6722 -0.4297  0.2414
  210WAT     H2  903   3.015   0.702   1.617  1.7314 -0.3440 -0.9345
  210WAT    EPW  904   3.007   0.619   1.640  0.3492  0.0014 -0.0691
  211WAT      O  905   1.888   0.827   1.444  0.0815  0.3964  0.0730
  211WAT     H1  906   1.805   0.868   1.470  0.1426  1.0949 -0.7864
  211WAT     H2  907   1.864   0.738   1.419 -0.5934  0.8912 -1.1255
  211WAT    EPW  908   1.874   0.820   1.444  0.0005  0.5538 -0.1984
  212WAT      O  909   0.509   1.414   3.687 -0.3211 -0.3422 -0.0472
  212WAT     H1  910   0.521   1.364   3.768 -0.9822  0.1424  0.3508
  212WAT     H2  911   0.508   1.347   3.618 -2.2687 -1.0214  0.5691
  212WAT    EPW  912   0.511   1.398   3.688 -0.6652 -0.3678  0.0866
  213WAT      O  913   3.304   2.366   3.784 -0.6004 -0.1381 -0.2543
  213WAT     H1  914   3.364   2.343   3.713  1.1003 -1.7362  1.5560
  213WAT     H2  915   3.330   2.454   3.810 -1.0954  0.3747 -1.4135
  213WAT    EPW  916   3.315   2.374   3.778 -0.4414 -0.2812 -0.1684
  214WAT      O  917   1.969   0.072   2.056  0.5710 -0.0941 -0.0917
  214WAT     H1  918   2.005   0.128   1.987 -0.7031  0.0643 -0.6593
  214WAT     H2  919   1.876   0.096   2.060  0.4762 -0.6144  1.1864
  214WAT    EPW  920   1.961   0.083   2.047  0.3904 -0.1418  0.0020
  215WAT      O  921   1.017   3.602   3.464 -0.2748 -0.7414  0.0052
  215WAT     H1  922   0.989   3.632   3.550 -2.2279 -1.1181 -0.4583
  215WAT     H2  923   1.006   3.678   3.407  1.6812 -0.2786  0.1693
  215WAT    EPW  924   1.012   3.616   3.468 -0.2744 -0.7301 -0.0343
  216WAT      O  925   3.694   3.357   0.809 -0.1163  0.4222  0.4729
  216WAT     H1  926   3.773   3.396   0.772 -0.2566  0.2180 -0.0438
  216WAT     H2  927   3.724   3.274   0.847 -0.4778 -0.8331 -1.8508
  216WAT    EPW  928   3.709   3.351   0.809 -0.1825  0.2297  0.0983
  217WAT      O  929   0.719   2.669   1.311  0.2858  0.1066  0.0914
  217WAT     H1  930   0.803   2.665   1.264  0.3958  1.4172  0.1252
  217WAT     H2  931   0.660   2.615   1.259  1.1315 -0.7770  0.0294
  217WAT    EPW  932   0.722   2.661   1.298  0.4118  0.1629  0.0876
  218WAT      O  933   3.606   2.999   2.452  0.4511 -0.0747  0.2148
  218WAT     H1  934   3.599   3.072   2.391  1.4593  0.2015  0.4150
  218WAT     H2  935   3.700   2.986   2.464  0.3003 -1.8666 -0.3450
  218WAT    EPW  936   3.617   3.007   2.446  0.5642 -0.2746  0.1674
  219WAT      O  937   3.540   2.715   3.256 -0.1161 -0.1292  0.0226
  219WAT     H1  938   3.582   2.710   3.342  0.2475  0.1197 -0.1371
  219WAT     H2  939   3.450   2.744   3.274 -0.4330 -1.3117  0.4266
  219WAT    EPW  940   3.533   2.718   3.269 -0.1100 -0.2523  0.0548
  220WAT      O  941   0.662   0.681   0.714 -0.0854  0.6413 -1.1005
  220WAT     H1  942   0.665   0.628   0.634 -1.6934  3.0922 -2.9680
  220WAT     H2  943   0.596   0.640   0.769  0.0937 -0.3658 -1.6214
  220WAT    EPW  944   0.654   0.669   0.710 -0.2738  0.8317 -1.4155
  221WAT      O  945   3.622   2.401   0.339  0.3675 -0.0290  0.2795
  221WAT     H1  946   3.600   2.494   0.330  1.9574  0.3864  0.3748
  221WAT     H2  947   3.543   2.361   0.377 -0.4549  1.2053 -0.0604
  221WAT    EPW  948   3.608   2.408   0.343  0.4687  0.1886  0.2473
  222WAT      O  949   2.390   3.843   3.718  0.3239 -0.9198  0.0593
  222WAT     H1  950   2.406   3.927   3.761  0.2413 -0.9791  0.2073
  222WAT     H2  951   2.361   3.785   3.789 -1.0587 -0.6746 -0.2639
  222WAT    EPW  952   2.388   3.847   3.733  0.1307 -0.8953  0.0362
  223WAT      O  953   3.395   0.218   1.343 -0.1396 -0.0025 -0.0052
  223WAT     H1  954   3.479   0.253   1.312  0.1134 -0.6378 -0.0427
  223WAT     H2  955   3.348   0.295   1.375  0.6570  0.2975  0.4762
  223WAT    EPW  956   3.400   0.233   1.343 -0.0012 -0.0467  0.0534
  224WAT      O  957   1.401   1.018   2.833  0.0874 -0.6980 -0.1868
  224WAT     H1  958   1.393   1.105   2.795  2.6860  0.6787  2.0425
  224WAT     H2  959   1.471   0.976   2.783  0.3369 -0.6605  0.1284
  224WAT    EPW  960   1.409   1.024   2.821  0.4630 -0.5115  0.1488
  225WAT      O  961   1.907   2.129   0.364  0.1274 -0.2915 -0.6414
  225WAT     H1  962   1.853   2.171   0.297 -0.9340  0.2887  0.5323
  225WAT     H2  963   1.899   2.035   0.346 -0.3621 -0.1542 -1.1642
  225WAT    EPW  964   1.899   2.122   0.353 -0.0772 -0.1969 -0.5556
  226WAT      O  965   2.622   2.615   0.667 -0.5869  0.2090 -0.2928
  226WAT     H1  966   2.594   2.525   0.649 -0.7603  0.2582 -0.2626
  226WAT     H2  967   2.604   2.663   0.586  1.2022 -0.1846 -0.9757
  226WAT    EPW  968   2.616   2.609   0.654 -0.3738  0.1636 -0.3789
  227WAT      O  969   2.925   3.762   0.297 -0.1763 -0.5926 -0.4909
  227WAT     H1  970   2.980   3.780   0.373  1.7669 -0.1779 -1.9251
  227WAT     H2  971   2.839   3.739   0.334  0.6645 -0.2720  1.7877
  227WAT    EPW  972   2.921   3.761   0.311  0.1909 -0.4956 -0.3795
  228WAT      O  973   1.925   0.987   1.802  0.1642  0.0047 -0.0759
  228WAT     H1  974   1.881   1.065   1.768  0.8743  0.7850  0.7451
  228WAT     H2  975   1.899   0.983   1.894 -0.1244 -0.9239 -0.1892
  228WAT    EPW  976   1.915   0.997   1.810  0.2198 -0.0149  0.0174
  229WAT      O  977   2.583   0.353   1.711  0.4044 -0.5948 -0.3389
  229WAT     H1  978   2.662   0.350   1.765  0.0998 -1.2251  0.0908
  229WAT     H2  979   2.613   0.387   1.626  1.2383 -1.3059 -0.3455
  229WAT    EPW  980   2.598   0.357   1.707  0.4742 -0.7717 -0.2831
  230WAT      O  981   0.663   3.970   3.198  0.2433  0.0309  0.5258
  230WAT     H1  982   0.672   3.962   3.103  0.2181 -0.4016  0.5596
  230WAT     H2  983   0.646   3.881   3.228 -0.7925  0.3128  0.8241
  230WAT    EPW  984   0.662   3.958   3.189  0.1034  0.0110  0.5696
  231WAT      O  985   0.706   2.216   3.228 -0.1736 -0.3445 -0.2040
  231WAT     H1  986   0.674   2.278   3.163  0.5210 -1.2564 -1.4663
  231WAT     H2  987   0.731   2.270   3.303 -1.2732  0.7005 -0.5639
  231WAT    EPW  988   0.705   2.231   3.229 -0.2270 -0.3270 -0.4180
  232WAT      O  989   1.665   2.714   1.980 -0.2977 -0.1231  0.0494
  232WAT     H1  990   1.686   2.799   2.019  0.1751  0.2173 -0.9108
  232WAT     H2  991   1.748   2.668   1.976 -0.0693  0.3569 -1.7144
  232WAT    EPW  992   1.678   2.719   1.985 -0.2052 -0.0149 -0.3099
  233WAT      O  993   0.410   2.273   2.581  0.0782 -0.3015  0.1161
  233WAT     H1  994   0.369   2.226   2.509 -0.2500 -0.6974  0.5498
  233WAT     H2  995   0.336   2.310   2.631  0.3127  0.2895  0.0424
  233WAT    EPW  996   0.394   2.272   2.578  0.0659 -0.2758  0.1636
  234WAT      O  997   2.543   1.269   1.860 -0.4652 -0.1507  0.2068
  234WAT     H1  998   2.480   1.203   1.832 -0.9477  0.2538  0.3161
  234WAT     H2  999   2.501   1.312   1.935 -0.3748  0.5901 -0.1522
  234WAT    EPW 1000   2.529   1.266   1.866 -0.5169  0.0004  0.1739
  235WAT      O 1001   1.714   1.748   1.528 -0.2360 -0.3043  0.2739
  235WAT     H1 1002   1.801   1.718   1.553  0.4636  0.2942 -1.3243
  235WAT     H2 1003   1.723   1.844   1.525 -1.3265 -0.1451  1.3751
  235WAT    EPW 1004   1.727   1.757   1.531 -0.2875 -0.2044  0.2084
  236WAT      O 1005   1.744   3.893   0.317  0.2404  0.2650  0.3973
  236WAT     H1 1006   1.659   3.858   0.287 -0.0174  0.1245  1.2708
  236WAT     H2 1007   1.787   3.819   0.359  1.0899  0.1639 -0.6175
  236WAT    EPW 1008   1.738   3.879   0.318  0.3185  0.2331  0.3787
  237WAT      O 1009   3.641   1.629   0.049  0.1086  0.6958 -0.1022
  237WAT     H1 1010   3.552   1.612   0.018  1.3449 -1.7814 -2.8037
  237WAT     H2 1011   3.658   1.720   0.025 -1.4887  1.0200 -0.0968
  237WAT    EPW 1012   3.631   1.638   0.041  0.0610  0.4118 -0.4578
  238WAT      O 1013   1.492   2.039   3.496  0.1974  0.1526  0.2959
  238WAT     H1 1014   1.553   2.101   3.535 -1.1450  0.8612  1.3521
  238WAT     H2 1015   1.453   2.088   3.423  2.1252 -0.9026 -1.5647
  238WAT    EPW 1016   1.495   2.054   3.491  0.2746  0.1069  0.1898
  239WAT      O 1017   0.385   0.285   2.599  0.0324  0.0278 -0.0977
  239WAT     H1 1018   0.313   0.296   2.662  0.8136  0.6159  0.7138
  239WAT     H2 1019   0.384   0.366   2.548  2.1755  1.5785  2.1141
  239WAT    EPW 1020   0.375   0.297   2.601  0.4181  0.3099  0.3010
  240WAT      O 1021   3.362   2.769   0.940  0.2415  0.0732  0.5438
  240WAT     H1 1022   3.349   2.699   0.876  1.0140  0.4916 -0.0863
  240WAT     H2 1023   3.329   2.733   1.022 -0.4286 -0.6025 -0.0129
  240WAT    EPW 1024   3.356   2.755   0.942  0.2550  0.0393  0.3873
  241WAT      O 1025   0.989   2.967   1.432 -0.2302 -0.0686  0.0234
  241WAT     H1 1026   0.950   2.934   1.513 -0.2895 -0.0342  0.0095
  241WAT     H2 1027   0.946   3.052   1.418  0.6992  0.5102  0.6260
  241WAT    EPW 1028   0.978   2.974   1.441 -0.1154  0.0123  0.1011
  242WAT      O 1029   1.695   3.579   3.643 -0.2742 -0.0001 -0.2160
  242WAT     H1 1030   1.646   3.547   3.718 -1.3841 -2.1618 -1.7515
  242WAT     H2 1031   1.776   3.529   3.644 -0.0053  0.4234 -0.1485
  242WAT    EPW 1032   1.699   3.569   3.653 -0.3851 -0.2293 -0.4096
  243WAT      O 1033   2.056   4.198   0.823  0.0155  0.6339  0.1182
  243WAT     H1 1034   2.018   4.286   0.821 -1.0209  0.2048 -2.2423
  243WAT     H2 1035   2.131   4.203   0.763 -0.0277 -0.1019  0.0013
  243WAT    EPW 1036   2.061   4.210   0.815 -0.1269  0.4803 -0.2085
  244WAT      O 1037   2.869   1.760   3.199  0.4699 -0.0167  0.6321
  244WAT     H1 1038   2.776   1.743   3.210  0.4692  0.7792  2.2382
  244WAT     H2 1039   2.908   1.675   3.180 -0.3229 -0.7197  2.0427
  244WAT    EPW 1040   2.862   1.747   3.198  0.3653 -0.0045  1.0300
  245WAT      O 1041   0.921   3.219   2.380 -0.1469  0.1307 -0.1554
  245WAT     H1 1042   0.951   3.130   2.397 -1.1625  0.1473  2.0742
  245WAT     H2 1043   0.895   3.253   2.466 -1.4630  1.9585 -1.1893
  245WAT    EPW 1044   0.922   3.212   2.394 -0.4544  0.3740  0.0023
  246WAT      O 1045   0.588   0.169   1.372 -0.1812 -0.5288 -0.4945
  246WAT     H1 1046   0.681   0.147   1.375  0.4006  1.5264 -1.6329
  246WAT     H2 1047   0.576   0.231   1.444 -0.3099  0.3507 -1.2550
  246WAT    EPW 1048   0.599   0.174   1.382 -0.1215 -0.1417 -0.7449
  247WAT      O 1049   2.422   3.577   3.898  0.8828  0.1340  0.0445
  247WAT     H1 1050   2.467   3.506   3.852 -0.9928 -0.1324 -1.4934
  247WAT     H2 1051   2.329   3.555   3.890  0.2386  2.8013 -0.5384
  247WAT    EPW 1052   2.415   3.565   3.891  0.5504  0.4506 -0.2352
  248WAT      O 1053   1.280   3.617   1.977  0.8916 -0.4043 -0.0253
  248WAT     H1 1054   1.338   3.553   2.019  2.3502  1.2946  0.6647
  248WAT     H2 1055   1.337   3.667   1.919 -0.5989 -0.9391 -2.0439
  248WAT    EPW 1056   1.295   3.615   1.975  0.8874 -0.2507 -0.2005
  249WAT      O 1057   0.372   3.972   1.276 -0.1446 -0.3597  0.0710
  249WAT     H1 1058   0.322   3.906   1.325 -0.1973 -0.0007  0.5047
  249WAT     H2 1059   0.328   4.055   1.296  0.5498 -0.0591  0.3584
  249WAT    EPW 1060   0.359   3.974   1.285 -0.0600 -0.2727  0.1661
  250WAT      O 1061   0.048   1.402   3.014  0.9315 -0.1085  0.4597
  250WAT     H1 1062   0.108   1.348   3.064 -0.2332 -0.9997  0.9548
  250WAT     H2 1063  -0.035   1.353   3.016  0.3412  0.7984 -0.6673
  250WAT    EPW 1064   0.045   1.388   3.021  0.7000 -0.1064  0.3763
  251WAT      O 1065   1.725   2.279   1.751 -0.3597 -0.6034 -0.2148
  251WAT     H1 1066   1.730   2.362   1.799  0.9438  0.7760 -2.5762
  251WAT     H2 1067   1.663   2.296   1.681  1.0353 -1.1007 -1.6201
  251WAT    EPW 1068   1.717   2.292   1.748 -0.0038 -0.4870 -0.7116
  252WAT      O 1069   0.481   2.266   3.596 -0.5205 -0.2219  0.3111
  252WAT     H1 1070   0.465   2.349   3.640 -0.6371 -0.2466  0.3169
  252WAT     H2 1071   0.409   2.258   3.533  0.0442  0.1462 -0.3796
  252WAT    EPW 1072   0.469   2.276   3.594 -0.4614 -0.1766  0.2208
  253WAT      O 1073   3.276   3.337   2.577 -0.3534 -0.4161 -0.0242
  253WAT     H1 1074   3.289   3.333   2.482  0.9303 -1.3347  0.1733
  253WAT     H2 1075   3.245   3.250   2.601  0.5336 -0.5729  0.5669
  253WAT    EPW 1076   3.273   3.325   2.567 -0.0671 -0.5579  0.0798
  254WAT      O 1077   1.279   3.520   0.588  0.1814 -0.0912  0.1314
  254WAT     H1 1078   1.296   3.560   0.673  0.7449 -1.2268  0.5710
  254WAT     H2 1079   1.308   3.429   0.598 -0.1734 -0.3598 -1.1311
  254WAT    EPW 1080   1.285   3.514   0.601  0.2089 -0.2764  0.0229
  255WAT      O 1081   1.601   4.188   2.603 -0.2843  0.2900  0.3443
  255WAT     H1 1082   1.656   4.137   2.662  0.2999 -0.3212 -0.7118
  255WAT     H2 1083   1.615   4.279   2.631  1.6379  0.1995 -0.1676
  255WAT    EPW 1084   1.610   4.194   2.614  0.0463  0.1974  0.1375
  256WAT      O 1085   2.234   3.001   0.521 -0.3857 -0.4907  0.0380
  256WAT     H1 1086   2.203   3.091   0.538  0.9826 -0.3841  2.4564
  256WAT     H2 1087   2.287   3.009   0.442  1.7446  1.4551  1.4928
  256WAT    EPW 1088   2.237   3.014   0.513  0.0757 -0.2200  0.5489
  257WAT      O 1089   0.222   2.015   2.496  0.0812  0.3245 -0.2591
  257WAT     H1 1090   0.200   2.072   2.422  0.2275 -1.2833 -1.6009
  257WAT     H2 1091   0.315   1.995   2.484  0.5210  1.2489  1.2586
  257WAT    EPW 1092   0.232   2.020   2.485  0.1585  0.2344 -0.2359
  258WAT      O 1093   1.692   2.660   2.955 -0.1180  0.0220  0.2281
  258WAT     H1 1094   1.785   2.673   2.976 -0.5169  0.8444  1.6522
  258WAT     H2 1095   1.676   2.717   2.880  0.4090  0.3197  0.3344
  258WAT    EPW 1096   1.702   2.669   2.948 -0.1011  0.1697  0.4299
  259WAT      O 1097   1.310   1.281   2.746  0.0789  0.2676  0.1031
  259WAT     H1 1098   1.389   1.308   2.699 -0.6352  0.8774 -0.8010
  259WAT     H2 1099   1.247   1.262   2.677 -0.1100 -1.7298  0.7792
  259WAT    EPW 1100   1.312   1.282   2.731 -0.0402  0.0846  0.0730
  260WAT      O 1101   2.800   3.254   3.559  0.2474 -0.0620 -0.2584
  260WAT     H1 1102   2.773   3.313   3.488  0.2481 -2.0213 -1.9812
  260WAT     H2 1103   2.732   3.188   3.562  1.8678 -1.8588 -0.7443
  260WAT    EPW 1104   2.788   3.253   3.550  0.4613 -0.5574 -0.5497
  261WAT      O 1105   0.434   3.285   2.990 -0.3496 -0.3651  0.4856
  261WAT     H1 1106   0.522   3.255   3.016 -0.0121  0.1531 -0.0455
  261WAT     H2 1107   0.378   3.261   3.064  0.5633  0.9629  1.6494
  261WAT    EPW 1108   0.438   3.278   3.003 -0.1847 -0.1216  0.5691
  262WAT      O 1109   2.858   1.463   1.472 -0.3908  0.0522  0.9325
  262WAT     H1 1110   2.869   1.540   1.529 -2.6460 -0.5675  2.3056
  262WAT     H2 1111   2.884   1.389   1.527 -0.1305 -0.3431  0.2808
  262WAT    EPW 1112   2.863   1.464   1.487 -0.6539 -0.0817  1.0277
  263WAT      O 1113   3.646   3.679   1.267 -0.0559 -0.3272  0.6297
  263WAT     H1 1114   3.569   3.669   1.210  0.1961 -1.8424  0.5091
  263WAT     H2 1115   3.713   3.623   1.226  1.7763  2.4045 -0.3476
  263WAT    EPW 1116   3.645   3.670   1.254  0.2190 -0.1668  0.4849
  264WAT      O 1117   2.716   1.469   3.030 -0.8146  0.2415 -0.2753
  264WAT     H1 1118   2.684   1.386   2.995 -1.9665  0.2019  0.8031
  264WAT     H2 1119   2.749   1.446   3.117 -0.9291  0.8653 -0.0667
  264WAT    EPW 1120   2.716   1.455   3.037 -0.9817  0.3185 -0.1055
  265WAT      O 1121   0.279   3.988   2.878 -0.1414  0.1157  0.2855
  265WAT     H1 1122   0.260   4.080   2.898 -1.8313 -0.1622  0.1419
  265WAT     H2 1123   0.314   3.953   2.960  1.2882  1.0595  0.1065
  265WAT    EPW 1124   0.281   3.996   2.891 -0.1757  0.2035  0.2429
  266WAT      O 1125   3.209   1.861   1.384 -0.5490  0.0004  0.1072
  266WAT     H1 1126   3.191   1.790   1.323  0.8218  0.2733 -0.6676
  266WAT     H2 1127   3.140   1.925   1.368 -0.3633 -0.0592 -0.9674
  266WAT    EPW 1128   3.198   1.860   1.374 -0.3437  0.0285 -0.1367
  267WAT      O 1129   2.686   0.684   0.061 -0.1599 -0.4127 -0.3230
  267WAT     H1 1130   2.648   0.615   0.116 -0.6374  1.4892  1.8809
  267WAT     H2 1131   2.770   0.705   0.102 -0.2382  0.6399 -0.6625
  267WAT    EPW 1132   2.692   0.677   0.073 -0.2332 -0.0231 -0.0771
  268WAT      O 1133   2.878   0.616   2.786  0.1947 -0.2353  0.2219
  268WAT     H1 1134   2.899   0.535   2.740 -0.4669  0.3642 -1.1927
  268WAT     H2 1135   2.785   0.630   2.767  0.5450  1.3892 -0.4504
  268WAT    EPW 1136   2.868   0.607   2.777  0.1536  0.0581 -0.0533
  269WAT      O 1137   2.294   1.758   0.848 -0.2624  0.0791  0.4212
  269WAT     H1 1138   2.337   1.773   0.933  0.6909  0.2009 -0.0690
  269WAT     H2 1139   2.308   1.665   0.831  2.2625  0.6107 -0.9934
  269WAT    EPW 1140   2.301   1.748   0.857  0.1964  0.1653  0.1699
  270WAT      O 1141   0.913   0.377   2.920  0.2286  0.6999 -0.0429
  270WAT     H1 1142   0.920   0.301   2.862 -0.9411  0.8558 -0.4180
  270WAT     H2 1143   1.000   0.417   2.917  0.9834 -0.7902  0.4337
  270WAT    EPW 1144   0.925   0.372   2.912  0.1739  0.5239 -0.0295
  271WAT      O 1145   1.754   1.132   0.954  0.2664 -0.4002 -0.5074
  271WAT     H1 1146   1.773   1.103   0.865  0.5900 -1.5960 -0.0839
  271WAT     H2 1147   1.658   1.136   0.959  0.1370 -2.3737 -0.3565
  271WAT    EPW 1148   1.744   1.128   0.943  0.2921 -0.8182 -0.4316
  272WAT      O 1149   2.678   3.018   2.429  0.1764  0.0945  0.7051
  272WAT     H1 1150   2.583   3.008   2.419  0.2174 -0.1202  0.5358
  272WAT     H2 1151   2.689   3.045   2.521  0.0891 -1.7795  1.3076
  272WAT    EPW 1152   2.667   3.020   2.440  0.1703 -0.1810  0.7622
  273WAT      O 1153   1.494   4.167   0.609  0.5687 -0.2270  0.1159
  273WAT     H1 1154   1.496   4.252   0.565 -1.1590 -0.3559 -0.2675
  273WAT     H2 1155   1.403   4.157   0.639  0.7576 -1.9081  0.2142
  273WAT    EPW 1156   1.482   4.177   0.607  0.3657 -0.4657  0.0783
  274WAT      O 1157   3.209   1.001   2.258 -0.0515  0.1801  0.2095
  274WAT     H1 1158   3.141   1.025   2.196  0.8494  0.7619 -0.5895
  274WAT     H2 1159   3.288   1.044   2.225  1.2772 -2.4444 -0.3004
  274WAT    EPW 1160   3.211   1.010   2.246  0.2425 -0.0893  0.0368
  275WAT      O 1161   2.513   0.335   3.825 -0.0281  0.6077 -0.3122
  275WAT     H1 1162   2.434   0.280   3.825  0.5974 -0.3470  1.3220
  275WAT     H2 1163   2.479   0.424   3.823 -1.2228  0.2418  1.3175
  275WAT    EPW 1164   2.498   0.339   3.825 -0.1032  0.4335  0.1183
  276WAT      O 1165   2.711   2.776   1.404 -0.3020  0.2737 -0.1838
  276WAT     H1 1166   2.639   2.780   1.467 -0.2299  2.1098 -0.1682
  276WAT     H2 1167   2.670   2.795   1.319  0.0679  0.6759 -0.2727
  276WAT    EPW 1168   2.696   2.779   1.401 -0.2437  0.5689 -0.1935
  277WAT      O 1169   2.583   4.188   0.177 -0.4138  0.2533 -0.5870
  277WAT     H1 1170   2.493   4.219   0.176 -0.6855 -0.0111  2.8424
  277WAT     H2 1171   2.579   4.102   0.219  1.6448  1.7821  3.2540
  277WAT    EPW 1172   2.571   4.181   0.183 -0.1781  0.4201  0.3719
  278WAT      O 1173   0.716   4.191   1.629 -0.1648  0.2917 -0.1230
  278WAT     H1 1174   0.716   4.261   1.694  1.7870 -0.3790  0.6627
  278WAT     H2 1175   0.745   4.232   1.548  1.5900  0.3266  0.4794
  278WAT    EPW 1176   0.720   4.206   1.627  0.3241  0.2079  0.0601
  279WAT      O 1177   1.225   1.204   1.581  0.4251 -0.0579  0.2177
  279WAT     H1 1178   1.303   1.256   1.602  0.9989 -0.5195 -0.7214
  279WAT     H2 1179   1.216   1.212   1.486  0.0177 -0.9761  0.1714
  279WAT    EPW 1180   1.234   1.212   1.572  0.4470 -0.2399  0.0878
  280WAT      O 1181   0.648   2.969   1.424  0.4834  0.2165  0.3319
  280WAT     H1 1182   0.691   2.888   1.397  0.2755 -0.2348  1.3058
  280WAT     H2 1183   0.565   2.941   1.463 -0.4498  1.0339 -0.9844
  280WAT    EPW 1184   0.642   2.955   1.426  0.3329  0.2648  0.2868
  281WAT      O 1185   2.837   0.979   1.761 -0.2400 -0.5969  0.0936
  281WAT     H1 1186   2.889   0.974   1.680  0.0651  0.6766  0.1984
  281WAT     H2 1187   2.819   1.072   1.773 -0.2786 -0.7654  1.5005
  281WAT    EPW 1188   2.842   0.990   1.752 -0.2048 -0.4512  0.2930
  282WAT      O 1189   0.933   3.842   1.163  0.0635  0.3373 -0.5813
  282WAT     H1 1190   0.893   3.852   1.076 -0.8111 -0.8073 -0.3374
  282WAT     H2 1191   0.915   3.751   1.187  1.2039  0.3421  0.3664
  282WAT    EPW 1192   0.925   3.832   1.154  0.0985  0.1870 -0.4241
  283WAT      O 1193   0.947   2.107   0.502 -0.3611  0.1391 -0.0212
  283WAT     H1 1194   0.898   2.140   0.427  1.6789 -1.6466 -2.2608
  283WAT     H2 1195   1.039   2.116   0.478  0.3431 -2.3853  1.3710
  283WAT    EPW 1196   0.952   2.113   0.489  0.0008 -0.4293 -0.1329
  284WAT      O 1197   1.479   2.705   2.701  0.1600  0.3467 -0.4763
  284WAT     H1 1198   1.482   2.700   2.606 -0.2153 -0.8890 -0.4477
  284WAT     H2 1199   1.387   2.720   2.722 -0.5440 -3.1831 -0.2680
  284WAT    EPW 1200   1.467   2.706   2.691  0.0177 -0.2818 -0.4450
  285WAT      O 1201   1.356   0.925   1.568  0.2029  0.1613  0.3204
  285WAT     H1 1202   1.316   1.012   1.558  0.3722  0.3495  1.1638
  285WAT     H2 1203   1.311   0.870   1.504 -0.0863  0.8092 -0.0454
  285WAT    EPW 1204   1.345   0.929   1.558  0.1871  0.2716  0.3834
  286WAT      O 1205   1.012   1.951   2.010 -0.0934  0.0504 -0.4968
  286WAT     H1 1206   1.064   2.029   1.989  0.8547 -0.4080  0.0767
  286WAT     H2 1207   0.952   1.980   2.079 -0.1331  0.4106 -0.6827
  286WAT    EPW 1208   1.011   1.965   2.016  0.0264  0.0374 -0.4457
  287WAT      O 1209   1.325   0.486   2.508  0.4562 -0.2040  0.2478
  287WAT     H1 1210   1.380   0.563   2.495  1.4567 -0.9638 -0.0987
  287WAT     H2 1211   1.235   0.520   2.505  0.8857  1.2807  2.2069
  287WAT    EPW 1212   1.320   0.500   2.506  0.6448 -0.1084  0.4605
  288WAT      O 1213   1.347   1.220   3.731 -0.0432 -0.3023 -0.3648
  288WAT     H1 1214   1.415   1.230   3.798  1.3737 -1.2955 -1.5604
  288WAT     H2 1215   1.368   1.136   3.689 -3.1383 -1.5709  0.3964
  288WAT    EPW 1216   1.359   1.210   3.734 -0.2645 -0.6006 -0.4221
  289WAT      O 1217   3.529   3.091   2.009  0.5190  0.5108  0.2664
  289WAT     H1 1218   3.473   3.165   1.986  1.3875  0.4942 -2.1726
  289WAT     H2 1219   3.577   3.120   2.087  2.2065  3.3651 -1.6366
  289WAT    EPW 1220   3.528   3.104   2.016  0.8562  0.8851 -0.3063
  290WAT      O 1221   0.092   3.435   1.073  0.1801 -0.3689 -0.4921
  290WAT     H1 1222   0.033   3.426   0.998  0.9821 -0.6975 -1.0919
  290WAT     H2 1223   0.054   3.378   1.140 -0.3993 -0.2732 -0.7279
  290WAT    EPW 1224   0.079   3.427   1.072  0.2094 -0.3996 -0.6023
  291WAT      O 1225   0.418   2.544   2.157  0.3703 -0.2762  0.3535
  291WAT     H1 1226   0.434   2.555   2.251  0.2857  2.5906  0.1148
  291WAT     H2 1227   0.326   2.518   2.152  0.2694 -0.0910  1.0528
  291WAT    EPW 1228   0.408   2.542   2.169  0.3459  0.1264  0.4143
  292WAT      O 1229   2.550   4.032   1.007 -0.0547 -0.0383  0.3850
  292WAT     H1 1230   2.522   3.962   0.948  1.6869  0.8029 -1.5541
  292WAT     H2 1231   2.587   3.986   1.083  2.0395 -1.3340 -1.3046
  292WAT    EPW 1232   2.551   4.017   1.009  0.4512 -0.0983 -0.0936
  293WAT      O 1233   1.450   2.059   3.803  0.5061  0.9478  0.6678
  293WAT     H1 1234   1.507   2.114   3.857  1.5899 -0.3266  0.8830
  293WAT     H2 1235   1.434   1.981   3.857  1.3822 -0.2329 -0.7015
  293WAT    EPW 1236   1.455   2.056   3.818  0.7646  0.6240  0.5156
  294WAT      O 1237   0.755   0.185   2.592  0.7866 -0.8258  0.2186
  294WAT     H1 1238   0.822   0.166   2.657  1.6763  0.7119 -0.2120
  294WAT     H2 1239   0.795   0.162   2.508  0.1218 -1.5663  0.0954
  294WAT    EPW 1240   0.769   0.180   2.590  0.8163 -0.7206  0.1456
  295WAT      O 1241   3.352   1.554   0.048  0.5683 -0.4079  0.0610
  295WAT     H1 1242   3.323   1.575   0.136  0.2723  1.3578 -0.3977
  295WAT     H2 1243   3.296   1.481   0.020  0.3722 -0.6884  1.1623
  295WAT    EPW 1244   3.340   1.547   0.056  0.5034 -0.2120  0.1458
  296WAT      O 1245   1.075   0.623   3.634 -0.4973 -0.6397  0.3770
  296WAT     H1 1246   1.048   0.695   3.577 -0.0365 -1.2379 -0.6348
  296WAT     H2 1247   1.115   0.559   3.574  1.4360 -0.6117  1.5476
  296WAT    EPW 1248   1.077   0.624   3.619 -0.1815 -0.7149  0.3979
  297WAT      O 1249   0.459   0.903   0.547  0.1263 -0.1353  0.3608
  297WAT     H1 1250   0.484   0.856   0.467  0.7674 -0.5314  0.7779
  297WAT     H2 1251   0.536   0.894   0.604  0.5414  1.9794  0.2298
  297WAT    EPW 1252   0.473   0.896   0.544  0.2656  0.0914  0.3986
  298WAT      O 1253   0.599   3.228   2.665  0.0196 -0.5771 -0.0253
  298WAT     H1 1254   0.530   3.294   2.677  1.4604  1.0406 -0.3068
  298WAT     H2 1255   0.563   3.168   2.599 -1.0752  0.3030 -0.2627
  298WAT    EPW 1256   0.585   3.229   2.658  0.0652 -0.2476 -0.0938
  299WAT      O 1257   1.318   3.031   2.955 -0.2128  0.4401  0.4096
  299WAT     H1 1258   1.289   2.944   2.982 -1.6461  0.5264 -0.7275
  299WAT     H2 1259   1.399   3.015   2.906 -0.2228 -0.2109  0.5957
  299WAT    EPW 1260   1.325   3.018   2.952 -0.4032  0.3656  0.2842
  300WAT      O 1261   0.685   0.196   0.071  1.1404  0.6898 -0.1481
  300WAT     H1 1262   0.619   0.191   0.002  1.2285  0.0669 -0.1962
  300WAT     H2 1263   0.674   0.115   0.122  0.9892  1.2017  0.6521
  300WAT    EPW 1264   0.675   0.184   0.069  1.1320  0.6751 -0.0489
  301WAT      O 1265   3.300   0.056   2.496 -0.0873  0.2085 -0.3534
  301WAT     H1 1266   3.280   0.048   2.589 -0.1481  0.5556 -0.3353
  301WAT     H2 1267   3.326  -0.032   2.469 -0.5013  0.0116 -0.1112
  301WAT    EPW 1268   3.301   0.043   2.505 -0.1499  0.2283 -0.3190
  302WAT      O 1269   1.736   1.203   1.731 -0.2880 -0.1447 -0.5273
  302WAT     H1 1270   1.722   1.196   1.825  0.6351 -0.5229 -0.4106
  302WAT     H2 1271   1.755   1.296   1.717  1.3729 -0.3723 -0.0563
  302WAT    EPW 1272   1.737   1.215   1.741  0.0528 -0.2246 -0.4498
  303WAT      O 1273   3.435   2.136   2.451 -0.3946  0.0530  0.5422
  303WAT     H1 1274   3.477   2.138   2.537  0.8782  0.5491 -0.0704
  303WAT     H2 1275   3.378   2.214   2.450  0.3848  0.6297  0.5577
  303WAT    EPW 1276   3.433   2.147   2.462 -0.1239  0.1945  0.4634
  304WAT      O 1277   1.129   2.402   1.022 -0.9553 -0.6355  0.2218
  304WAT     H1 1278   1.213   2.430   1.058  0.6793 -2.2307 -2.0829
  304WAT     H2 1279   1.115   2.315   1.059 -1.7323 -0.3095  0.7341
  304WAT    EPW 1280   1.138   2.394   1.032 -0.8422 -0.8029 -0.0146
  305WAT      O 1281   2.335   1.958   2.544  0.0171 -0.2881  0.4685
  305WAT     H1 1282   2.352   2.041   2.589 -2.3638  1.3206 -1.3336
  305WAT     H2 1283   2.417   1.937   2.500  0.7439  1.0062  1.1573
  305WAT    EPW 1284   2.348   1.966   2.544 -0.2010  0.0948  0.3217
  306WAT      O 1285   3.602   3.159   3.101  0.7302  0.0185  0.2742
  306WAT     H1 1286   3.597   3.077   3.051 -2.1828 -0.0789  0.5685
  306WAT     H2 1287   3.695   3.181   3.101  1.3034 -1.9668 -1.9511
  306WAT    EPW 1288   3.613   3.151   3.094  0.4216 -0.2562  0.0195
  307WAT      O 1289   1.355   2.545   3.892  0.4589 -0.3938 -0.3493
  307WAT     H1 1290   1.374   2.519   3.802 -0.2233 -0.3185 -0.5239
  307WAT     H2 1291   1.281   2.490   3.918 -1.1313  1.4170 -0.7973
  307WAT    EPW 1292   1.348   2.535   3.884  0.1592 -0.1450 -0.4314
  308WAT      O 1293   2.236   3.006   0.232  0.2716  0.1607  0.1204
  308WAT     H1 1294   2.185   2.936   0.191 -1.8506  2.4448 -1.4568
  308WAT     H2 1295   2.288   3.042   0.160  1.7623 -0.0886  1.0328
  308WAT    EPW 1296   2.236   3.001   0.217  0.1883  0.4291  0.0327
  309WAT      O 1297   3.115   0.276   0.610  0.1295  0.0223  0.1300
  309WAT     H1 1298   3.102   0.327   0.690  0.9137  0.0372  0.2477
  309WAT     H2 1299   3.209   0.267   0.602  0.2537  2.4628 -2.3641
  309WAT    EPW 1300   3.125   0.281   0.620  0.2493  0.3462 -0.1834
  310WAT      O 1301   2.815   4.055   0.302  0.0943 -0.7923 -0.5045
  310WAT     H1 1302   2.829   3.964   0.274  0.5093 -0.7102 -0.5817
  310WAT     H2 1303   2.872   4.106   0.244 -1.0643 -0.3554 -1.2995
  310WAT    EPW 1304   2.825   4.050   0.290 -0.0038 -0.7238 -0.6195
  311WAT      O 1305   3.540   3.580   2.065 -0.5841  0.1091 -0.5698
  311WAT     H1 1306   3.556   3.553   1.974 -3.1152  1.6337 -1.5581
  311WAT     H2 1307   3.590   3.661   2.075  0.0033 -0.2575 -0.4297
  311WAT    EPW 1308   3.549   3.587   2.054 -0.8404  0.2618 -0.6817
  312WAT      O 1309   3.511   4.024   2.815  0.0835 -0.0394 -0.1621
  312WAT     H1 1310   3.603   4.018   2.788 -0.1943 -1.3252 -0.9009
  312WAT     H2 1311   3.513   4.003   2.909  0.2872 -3.1041 -0.7378
  312WAT    EPW 1312   3.524   4.021   2.824  0.0737 -0.6132 -0.3355
  313WAT      O 1313   0.151   3.050   1.698  0.0864  0.0574 -0.1648
  313WAT     H1 1314   0.165   2.974   1.755  1.0209  0.5176  0.2334
  313WAT     H2 1315   0.141   3.124   1.759  0.5895  0.4731 -0.5835
  313WAT    EPW 1316   0.152   3.050   1.714  0.2760  0.1729 -0.1675
  314WAT      O 1317   3.236   1.138   1.045  0.2225 -0.4726  0.0106
  314WAT     H1 1318   3.171   1.082   1.002 -0.1416 -0.0078 -0.0543
  314WAT     H2 1319   3.288   1.173   0.973  0.1315 -0.3348  0.0120
  314WAT    EPW 1320   3.234   1.135   1.030  0.1625 -0.3932  0.0022
  315WAT      O 1321   2.262   1.133   2.300 -0.2795  0.0495 -0.2860
  315WAT     H1 1322   2.176   1.122   2.259 -0.0963  3.5650 -2.0107
  315WAT     H2 1323   2.243   1.174   2.384 -0.3524  0.8546 -0.6797
  315WAT    EPW 1324   2.248   1.137   2.306 -0.2649  0.6194 -0.5654
  316WAT      O 1325   2.146   2.692   1.416 -0.6418  0.5907 -0.0410
  316WAT     H1 1326   2.167   2.692   1.510  1.1214  1.0945 -0.3997
  316WAT     H2 1327   2.154   2.600   1.390  1.0671  0.7210 -0.1058
  316WAT    EPW 1328   2.150   2.680   1.425 -0.1838  0.6743 -0.0968
  317WAT      O 1329   1.723   2.540   0.818  0.2722 -0.0674  0.2585
  317WAT     H1 1330   1.719   2.609   0.752  1.6194  0.2640  0.4856
  317WAT     H2 1331   1.686   2.463   0.775  0.3852  0.3483 -0.6060
  317WAT    EPW 1332   1.718   2.539   0.804  0.4648  0.0312  0.1744
  318WAT      O 1333   0.822   4.169   3.347 -0.9500  0.4965 -0.4569
  318WAT     H1 1334   0.915   4.158   3.365 -0.9493  0.7763 -0.2750
  318WAT     H2 1335   0.792   4.082   3.321 -0.7114  0.3279 -0.1791
  318WAT    EPW 1336   0.830   4.156   3.346 -0.9185  0.5112 -0.3963
  319WAT      O 1337   1.021   0.447   1.065 -0.0007 -0.0632  0.4151
  319WAT     H1 1338   1.081   0.407   1.003 -0.6626  0.9812 -0.9329
  319WAT     H2 1339   0.934   0.435   1.027 -0.6175 -0.8436  1.9464
  319WAT    EPW 1340   1.017   0.440   1.052 -0.1694 -0.0284  0.4393
  320WAT      O 1341   3.054   2.174   1.624  0.3313 -0.1750  0.0390
  320WAT     H1 1342   3.110   2.096   1.630 -1.0703 -1.1673  1.1724
  320WAT     H2 1343   3.059   2.213   1.711 -0.9449 -0.4679  0.2668
  320WAT    EPW 1344   3.062   2.169   1.637 -0.0219 -0.3445  0.2185
  321WAT      O 1345   2.214   1.050   1.691 -0.3142 -0.5119  0.1884
  321WAT     H1 1346   2.191   1.108   1.763 -0.1684  0.7239 -0.7204
  321WAT     H2 1347   2.144   0.986   1.688 -1.3193  0.5491  0.2513
  321WAT    EPW 1348   2.202   1.049   1.700 -0.4275 -0.2090  0.0768
  322WAT      O 1349   1.960   1.901   0.605 -0.1596  0.3444 -0.2815
  322WAT     H1 1350   1.915   1.966   0.659  0.0501  1.0416 -0.9301
  322WAT     H2 1351   2.016   1.854   0.666 -0.4110  0.6921  0.2214
  322WAT    EPW 1352   1.962   1.903   0.620 -0.1651  0.4822 -0.3007
  323WAT      O 1353   2.476   3.214   1.735 -0.0522 -0.2782  0.4463
  323WAT     H1 1354   2.485   3.272   1.811 -0.1818 -0.0215  0.2676
  323WAT     H2 1355   2.549   3.152   1.743  0.2244  0.0543  0.5147
  323WAT    EPW 1356   2.487   3.213   1.746 -0.0328 -0.2005  0.4318
  324WAT      O 1357   2.691   2.256   0.014  0.3580  0.4099 -0.3702
  324WAT     H1 1358   2.722   2.193  -0.051 -1.9085 -2.1084  0.7750
  324WAT     H2 1359   2.653   2.202   0.083 -0.2624  3.0510  1.5172
  324WAT    EPW 1360   2.690   2.241   0.014 -0.0228  0.4261  0.0298
  325WAT      O 1361   0.082   2.850   3.374  0.3813  0.0032 -0.1775
  325WAT     H1 1362   0.047   2.829   3.288 -1.2795 -2.1193  0.9399
  325WAT     H2 1363   0.023   2.916   3.410 -0.1841 -0.6588  0.1339
  325WAT    EPW 1364   0.070   2.856   3.368  0.0877 -0.3641  0.0110
  326WAT      O 1365   2.028   0.459   2.521 -0.4739 -0.3940  0.0184
  326WAT     H1 1366   2.123   0.453   2.510 -0.5092 -1.0853  0.0313
  326WAT     H2 1367   1.995   0.480   2.434 -0.3107 -0.0842  0.0268
  326WAT    EPW 1368   2.036   0.461   2.508 -0.4570 -0.4443  0.0212
  327WAT      O 1369   0.601   0.497   0.502  0.1750 -0.2310  0.0953
  327WAT     H1 1370   0.509   0.495   0.476  0.2668  1.5037 -0.4430
  327WAT     H2 1371   0.647   0.448   0.434 -0.2802 -0.6220  0.0690
  327WAT    EPW 1372   0.595   0.490   0.490  0.1271 -0.0538  0.0209
  328WAT      O 1373   3.043   2.944   3.475 -0.2686 -0.2453 -0.0410
  328WAT     H1 1374   2.982   3.000   3.522 -1.7017 -0.0484 -2.0176
  328WAT     H2 1375   3.008   2.855   3.487 -1.0252 -0.1259 -1.2291
  328WAT    EPW 1376   3.030   2.939   3.482 -0.5574 -0.2036 -0.4584
  329WAT      O 1377   1.718   1.228   0.095  0.1607  0.0693  1.0171
  329WAT     H1 1378   1.649   1.220   0.029  0.0680  0.5912  1.0491
  329WAT     H2 1379   1.673   1.212   0.178  0.5864 -2.3229  0.8702
  329WAT    EPW 1380   1.703   1.225   0.098  0.2047 -0.1774  1.0020
  330WAT      O 1381   0.380   4.235   3.890 -0.2119  0.0396  0.3088
  330WAT     H1 1382   0.459   4.196   3.929  0.1672  0.6106  0.1337
  330WAT     H2 1383   0.311   4.220   3.955  0.7902  2.5745  2.1010
  330WAT    EPW 1384   0.382   4.228   3.903 -0.0297  0.4492  0.5221
  331WAT      O 1385   2.495   1.093   3.288 -0.1695 -0.0446  0.1728
  331WAT     H1 1386   2.455   1.042   3.217  0.1852 -0.2674  0.1342
  331WAT     H2 1387   2.514   1.029   3.356 -1.2784  0.2954  0.8221
  331WAT    EPW 1388   2.492   1.078   3.287 -0.2690 -0.0292  0.2534
  332WAT      O 1389   3.692   4.122   3.266  0.0586  0.2810 -0.2658
  332WAT     H1 1390   3.733   4.171   3.195  1.2860  1.5138  1.1888
  332WAT     H2 1391   3.759   4.119   3.335 -1.0480 -0.8901  0.8279
  332WAT    EPW 1392   3.706   4.128   3.266  0.0746  0.2891  0.0703
  333WAT      O 1393   1.075   3.189   3.018  0.3798 -0.2405  0.4417
  333WAT     H1 1394   1.072   3.285   3.011 -0.6696 -0.3227 -0.4340
  333WAT     H2 1395   1.165   3.166   2.994  0.8410  0.5525  1.3112
  333WAT    EPW 1396   1.087   3.199   3.014  0.3022 -0.1468  0.4409
  334WAT      O 1397   2.045   3.335   3.059  0.1887  0.2394  0.8742
  334WAT     H1 1398   2.102   3.316   3.133 -1.8359  1.3620  2.8414
  334WAT     H2 1399   1.982   3.262   3.058 -0.2834  0.6421  0.7899
  334WAT    EPW 1400   2.044   3.322   3.068 -0.1406  0.4406  1.1225
  335WAT      O 1401   1.075   2.633   2.102 -0.5482  0.2256  0.2651
  335WAT     H1 1402   1.049   2.547   2.070 -0.2788  0.6879 -1.2664
  335WAT     H2 1403   1.144   2.661   2.043 -0.5559  1.4563  0.8020
  335WAT    EPW 1404   1.080   2.625   2.090 -0.5137  0.4489  0.1339
  336WAT      O 1405   2.719   0.541   3.778  0.1774  0.2416  0.3052
  336WAT     H1 1406   2.691   0.451   3.792  3.3366 -0.7690  0.9440
  336WAT     H2 1407   2.736   0.575   3.866  3.6278 -0.2909 -0.0168
  336WAT    EPW 1408   2.718   0.534   3.792  1.0491  0.0381  0.3470
  337WAT      O 1409   0.938   0.635   0.701 -0.3510  0.0467 -0.3757
  337WAT     H1 1410   0.938   0.566   0.634  0.6274  1.0272 -1.4237
  337WAT     H2 1411   0.849   0.634   0.736 -0.9251 -0.4245 -1.7757
  337WAT    EPW 1412   0.926   0.626   0.697 -0.2977  0.1139 -0.6986
  338WAT      O 1413   3.197   0.776   0.724  0.1630 -0.3612  0.3052
  338WAT     H1 1414   3.263   0.710   0.704 -0.2396 -0.6117 -0.2443
  338WAT     H2 1415   3.187   0.773   0.819  0.9883 -0.2643  0.3997
  338WAT    EPW 1416   3.204   0.767   0.734  0.2188 -0.3815  0.2452
  339WAT      O 1417   2.199   3.312   0.890 -0.2432 -0.7492 -0.1807
  339WAT     H1 1418   2.167   3.313   0.799 -1.5779 -1.9127  0.2406
  339WAT     H2 1419   2.256   3.236   0.895  2.6740  1.2371 -0.8858
  339WAT    EPW 1420   2.202   3.302   0.878 -0.0345 -0.6407 -0.2182
  340WAT      O 1421   2.037   4.048   3.129  0.5995  0.1552 -0.2305
  340WAT     H1 1422   2.011   4.075   3.216  0.5459 -0.4159 -0.0617
  340WAT     H2 1423   2.110   3.987   3.143  0.5989  0.0672 -0.5829
  340WAT    EPW 1424   2.043   4.043   3.142  0.5923  0.0683 -0.2547
  341WAT      O 1425   1.635   4.108   1.274 -0.5205  0.4619 -0.3213
  341WAT     H1 1426   1.550   4.137   1.308 -0.0439  0.4156  0.9981
  341WAT     H2 1427   1.680   4.189   1.252  0.5161  0.8394  2.6402
  341WAT    EPW 1428   1.630   4.123   1.276 -0.3209  0.5056  0.2433
  342WAT      O 1429   1.234   1.365   2.055 -0.2623 -0.1958  0.2445
  342WAT     H1 1430   1.270   1.303   1.992 -1.3460 -0.3939 -0.1953
  342WAT     H2 1431   1.140   1.345   2.059 -0.5850  1.1834  0.3427
  342WAT    EPW 1432   1.226   1.354   2.047 -0.4478 -0.0400  0.1995
  343WAT      O 1433   0.038   3.112   3.615 -0.3179 -0.2695 -0.2705
  343WAT     H1 1434   0.002   3.167   3.684  1.6458  1.9614 -0.8835
  343WAT     H2 1435  -0.032   3.107   3.549 -0.4068  2.0257 -0.4324
  343WAT    EPW 1436   0.024   3.119   3.615 -0.0706  0.3275 -0.3727
  344WAT      O 1437   1.866   2.499   1.918  0.3095  0.1634 -0.0236
  344WAT     H1 1438   1.896   2.512   1.828 -0.5467 -1.1844 -0.5306
  344WAT     H2 1439   1.945   2.508   1.971  1.0326 -0.1136 -1.0217
  344WAT    EPW 1440   1.881   2.502   1.913  0.2920 -0.0509 -0.2221
  345WAT      O 1441   0.234   3.186   3.173 -0.0543 -0.4505  0.3138
  345WAT     H1 1442   0.224   3.190   3.268  1.4512 -0.2727  0.4885
  345WAT     H2 1443   0.222   3.093   3.152  1.4158 -0.8128  0.9368
  345WAT    EPW 1444   0.231   3.174   3.182  0.3382 -0.4749  0.4190
  346WAT      O 1445   2.979   2.064   0.586 -0.2624  0.3209 -0.3617
  346WAT     H1 1446   2.921   2.000   0.544  0.6210 -0.5048 -0.3667
  346WAT     H2 1447   3.024   2.107   0.513 -1.7946  1.9054 -0.4241
  346WAT    EPW 1448   2.978   2.061   0.571 -0.3480  0.4210 -0.3706
  347WAT      O 1449   0.997   2.861   3.132 -0.1260 -0.0741  0.5000
  347WAT     H1 1450   0.957   2.905   3.206 -2.1633  0.0007 -0.5627
  347WAT     H2 1451   0.938   2.787   3.114 -0.3008  0.5026 -1.6370
  347WAT    EPW 1452   0.984   2.857   3.139 -0.4178  0.0118  0.0780
  348WAT      O 1453   1.234   0.438   1.922 -0.3905 -0.2342 -0.1067
  348WAT     H1 1454   1.293   0.454   1.995  0.2168 -1.1400 -0.3733
  348WAT     H2 1455   1.252   0.508   1.860 -0.4125  0.1387  0.3039
  348WAT    EPW 1456   1.244   0.449   1.923 -0.3133 -0.3045 -0.0877
  349WAT      O 1457   3.005   3.128   1.680 -0.7287 -0.1357 -0.9273
  349WAT     H1 1458   2.971   3.066   1.745  0.3401 -1.2090 -1.3632
  349WAT     H2 1459   2.956   3.109   1.600 -1.5491  0.7119 -0.6449
  349WAT    EPW 1460   2.994   3.117   1.678 -0.6960 -0.1654 -0.9476
  350WAT      O 1461   2.660   1.216   2.259 -0.3376  0.2514  0.0064
  350WAT     H1 1462   2.710   1.208   2.340  0.5462 -0.6923 -0.6004
  350WAT     H2 1463   2.685   1.300   2.222  1.3735 -0.4778 -0.6157
  350WAT    EPW 1464   2.670   1.226   2.265  0.0047  0.0307 -0.1557
  351WAT      O 1465   1.001   0.071   1.604 -0.1374  0.0679 -0.0844
  351WAT     H1 1466   1.013  -0.024   1.611  0.1667  0.1447  0.4293
  351WAT     H2 1467   1.031   0.105   1.688 -1.9824  0.4580  0.4506
  351WAT    EPW 1468   1.007   0.063   1.616 -0.3407  0.1295  0.0539
  352WAT      O 1469   1.710   1.269   2.935 -0.8869 -0.0802 -0.0191
  352WAT     H1 1470   1.664   1.236   3.012  0.0492  0.1882  0.6786
  352WAT     H2 1471   1.790   1.309   2.970 -0.7781  0.6752 -1.0629
  352WAT    EPW 1472   1.715   1.270   2.950 -0.7491  0.0549 -0.0647
  353WAT      O 1473   2.210   1.929   3.582  0.3380 -0.1572  0.4737
  353WAT     H1 1474   2.295   1.908   3.622  0.8202  1.7561  0.5405
  353WAT     H2 1475   2.204   1.869   3.507  2.0470  0.0871  0.1012
  353WAT    EPW 1476   2.221   1.918   3.577  0.6270  0.1274  0.4333
  354WAT      O 1477   0.586   1.395   2.569  0.1582 -0.6493  0.6477
  354WAT     H1 1478   0.536   1.444   2.505  1.4812 -0.4264 -0.2562
  354WAT     H2 1479   0.648   1.458   2.605  0.7434 -1.2429  0.7075
  354WAT    EPW 1480   0.588   1.410   2.565  0.4099 -0.6982  0.5364
  355WAT      O 1481   1.601   3.580   1.697 -0.1317 -0.3192 -0.2818
  355WAT     H1 1482   1.642   3.604   1.780 -0.5493 -0.2437 -0.0981
  355WAT     H2 1483   1.553   3.658   1.671 -0.2706 -0.4547 -0.4308
  355WAT    EPW 1484   1.600   3.593   1.704 -0.2051 -0.3271 -0.2773
  356WAT      O 1485   0.577   3.585   2.812  0.4876  0.2470 -0.0940
  356WAT     H1 1486   0.617   3.669   2.790 -0.2347  0.4399 -0.7091
  356WAT     H2 1487   0.519   3.604   2.887  1.7140 -0.0863  0.9751
  356WAT    EPW 1488   0.574   3.599   2.819  0.5541  0.2285 -0.0341
  357WAT      O 1489   0.579   4.026   1.869  0.0701  0.0302  0.2436
  357WAT     H1 1490   0.651   4.056   1.814 -0.0436 -0.0727  0.0341
  357WAT     H2 1491   0.598   3.934   1.886  0.4849  0.2551  0.9930
  357WAT    EPW 1492   0.591   4.018   1.864  0.1098  0.0463  0.3148
  358WAT      O 1493   2.841   3.774   1.591 -0.1941  0.3177  0.4074
  358WAT     H1 1494   2.782   3.777   1.666 -1.8649  1.2886 -0.8722
  358WAT     H2 1495   2.928   3.785   1.628 -0.9982  1.0613  2.1781
  358WAT    EPW 1496   2.845   3.776   1.606 -0.5206  0.5438  0.4722
  359WAT      O 1497   3.015   1.216   3.604 -0.4541 -0.8641 -0.2455
  359WAT     H1 1498   3.035   1.238   3.695 -0.4941 -2.2840  0.1386
  359WAT     H2 1499   2.943   1.153   3.611 -0.7856 -0.6196 -1.2929
  359WAT    EPW 1500   3.008   1.211   3.617 -0.5031 -1.0191 -0.3330
  360WAT      O 1501   0.110   4.014   3.993 -0.0369 -0.3701  0.3072
  360WAT     H1 1502   0.104   3.944   4.059 -2.6687 -0.5020  0.0330
  360WAT     H2 1503   0.022   4.020   3.957  0.2756  2.6416 -0.1887
  360WAT    EPW 1504   0.098   4.005   3.997 -0.3428  0.0097  0.2057
  361WAT      O 1505   3.519   3.424   2.932  0.4331 -0.6989 -0.0086
  361WAT     H1 1506   3.592   3.438   2.994  1.2176  0.6944 -1.1683
  361WAT     H2 1507   3.483   3.512   2.919  1.1001 -0.7226 -2.4500
  361WAT    EPW 1508   3.524   3.437   2.938  0.6245 -0.5182 -0.4835
  362WAT      O 1509   1.610   2.472   2.127  0.1800 -0.6315 -0.2625
  362WAT     H1 1510   1.609   2.545   2.065  3.3621 -0.8737 -0.7264
  362WAT     H2 1511   1.596   2.394   2.073 -1.7177 -0.5510  0.0380
  362WAT    EPW 1512   1.608   2.471   2.112  0.3494 -0.6528 -0.2840
  363WAT      O 1513   2.071   2.177   3.597 -0.1640  0.3975 -0.2560
  363WAT     H1 1514   2.106   2.089   3.593  1.5214  1.0590 -0.8185
  363WAT     H2 1515   2.146   2.234   3.579 -1.4062  1.9099 -0.9115
  363WAT    EPW 1516   2.085   2.173   3.594 -0.1055  0.6843 -0.4167
  364WAT      O 1517   0.106   3.336   2.084 -0.1577  0.5468  0.3597
  364WAT     H1 1518   0.075   3.346   1.994 -1.0697 -1.4634  0.3835
  364WAT     H2 1519   0.201   3.345   2.078 -0.0068 -1.3520 -1.1789
  364WAT    EPW 1520   0.115   3.338   2.071 -0.2581  0.0312  0.1599
  365WAT      O 1521   0.635   3.746   3.333 -0.2922 -0.2741 -0.3653
  365WAT     H1 1522   0.650   3.667   3.281  0.5403 -0.8894  0.7814
  365WAT     H2 1523   0.673   3.727   3.418  1.8433  2.1031 -0.6605
  365WAT    EPW 1524   0.642   3.733   3.337  0.0993 -0.0417 -0.2530
  366WAT      O 1525   1.038   1.537   1.714 -0.1390 -0.0962  0.3168
  366WAT     H1 1526   1.122   1.561   1.752 -0.4634 -0.4930  1.3396
  366WAT     H2 1527   0.975   1.593   1.760 -0.3237  1.1392 -1.3644
  366WAT    EPW 1528   1.040   1.547   1.725 -0.2061  0.0144  0.2299
  367WAT      O 1529   0.536   3.607   1.277  0.2970  0.2889 -0.3196
  367WAT     H1 1530   0.485   3.604   1.196 -1.6274 -0.3554  0.8465
  367WAT     H2 1531   0.622   3.575   1.252 -0.6942 -1.4228 -1.8152
  367WAT    EPW 1532   0.540   3.603   1.263 -0.0875 -0.0219 -0.3630
  368WAT      O 1533   2.335   2.805   1.931 -0.2818 -0.0334  0.6604
  368WAT     H1 1534   2.297   2.884   1.969  1.5677  0.9959  0.4618
  368WAT     H2 1535   2.426   2.804   1.962  0.0360 -1.5267 -0.1971
  368WAT    EPW 1536   2.342   2.815   1.940  0.0041 -0.0946  0.5211
  369WAT      O 1537   1.412   0.132   3.254 -0.3802 -0.4814  0.4287
  369WAT     H1 1538   1.430   0.071   3.326 -0.2879  0.0308  0.8433
  369WAT     H2 1539   1.477   0.202   3.266 -0.3284 -0.4215 -0.1867
  369WAT    EPW 1540   1.423   0.133   3.265 -0.3612 -0.4060  0.4022
  370WAT      O 1541   1.605   1.924   0.568  0.2400 -0.3411  0.0869
  370WAT     H1 1542   1.634   1.865   0.637 -1.0222  0.3323  1.2380
  370WAT     H2 1543   1.606   2.011   0.608  0.9629  0.2897 -1.2276
  370WAT    EPW 1544   1.609   1.927   0.582  0.1689 -0.1691  0.0653
  371WAT      O 1545   3.140   0.504   2.466 -0.6833  0.1539 -0.3845
  371WAT     H1 1546   3.161   0.575   2.405  0.4996 -0.9758 -1.3508
  371WAT     H2 1547   3.174   0.425   2.424 -1.6084 -0.9492  0.8404
  371WAT    EPW 1548   3.147   0.503   2.452 -0.6493 -0.1406 -0.3504
  372WAT      O 1549   0.863   1.768   2.852 -0.0442  0.4399  0.0034
  372WAT     H1 1550   0.812   1.694   2.883  1.4755 -0.0064  1.5898
  372WAT     H2 1551   0.801   1.841   2.849 -1.1769 -0.4909  0.0472
  372WAT    EPW 1552   0.848   1.768   2.855  0.0068  0.2583  0.2184
  373WAT      O 1553   1.856   1.260   2.452  0.1291  0.2262  0.0101
  373WAT     H1 1554   1.783   1.226   2.400  1.5105 -0.2546 -1.7240
  373WAT     H2 1555   1.879   1.187   2.509 -2.1744  1.1555  2.3254
  373WAT    EPW 1556   1.849   1.246   2.452  0.0075  0.2853  0.0868
  374WAT      O 1557   1.424   3.820   1.222 -0.0027 -0.5057 -0.0692
  374WAT     H1 1558   1.419   3.726   1.242 -2.2592 -0.4952 -0.3142
  374WAT     H2 1559   1.502   3.828   1.167  0.6014 -2.1268  0.4850
  374WAT    EPW 1560   1.433   3.809   1.217 -0.2206 -0.7181 -0.0284
  375WAT      O 1561   0.011   2.421   1.875  0.1553 -0.3955 -0.4065
  375WAT     H1 1562   0.021   2.505   1.830  2.3670 -1.1612 -1.4744
  375WAT     H2 1563   0.012   2.444   1.968  0.5077  0.7969 -0.6867
  375WAT    EPW 1564   0.013   2.435   1.881  0.4935 -0.3392 -0.5843
  376WAT      O 1565   0.763   2.732   1.982 -0.0170  0.3175  0.0013
  376WAT     H1 1566   0.747   2.733   2.076  0.4146 -0.5332  0.1040
  376WAT     H2 1567   0.846   2.778   1.971 -0.2334  0.7105 -0.0068
  376WAT    EPW 1568   0.772   2.738   1.993  0.0114  0.2571  0.0138
  377WAT      O 1569   1.478   0.739   2.444 -0.3805 -0.0956 -0.6522
  377WAT     H1 1570   1.519   0.722   2.529  0.2841  0.7469 -0.7921
  377WAT     H2 1571   1.436   0.825   2.455 -0.0858  0.1274 -1.2512
  377WAT    EPW 1572   1.478   0.748   2.457 -0.2540  0.0449 -0.7496
  378WAT      O 1573   3.277   3.650   2.131 -0.3394 -0.1672 -0.3198
  378WAT     H1 1574   3.229   3.674   2.052 -0.8983  1.7776  0.5371
  378WAT     H2 1575   3.367   3.639   2.102 -0.5038  0.6844 -1.2170
  378WAT    EPW 1576   3.282   3.652   2.117 -0.4348  0.2016 -0.3251
  379WAT      O 1577   3.691   0.225   3.178  0.6847 -0.1122 -0.1012
  379WAT     H1 1578   3.718   0.225   3.270  0.8053  0.8700 -0.1257
  379WAT     H2 1579   3.744   0.156   3.138 -1.1097 -2.2663  1.0222
  379WAT    EPW 1580   3.702   0.216   3.185  0.4639 -0.2668  0.0437
  380WAT      O 1581   2.204   3.822   2.589 -0.6317 -0.1074  0.1684
  380WAT     H1 1582   2.272   3.802   2.524 -0.8808 -0.5527  0.0389
  380WAT     H2 1583   2.241   3.791   2.672  0.0660  1.2831  0.4072
  380WAT    EPW 1584   2.218   3.815   2.591 -0.5726  0.0172  0.1828
  381WAT      O 1585   2.311   0.007   0.695  0.0366 -0.3037  0.9497
  381WAT     H1 1586   2.384   0.064   0.719  0.5329 -0.2866 -0.5249
  381WAT     H2 1587   2.321  -0.007   0.601 -2.2142  0.1734  0.5927
  381WAT    EPW 1588   2.322   0.012   0.686 -0.1948 -0.2385  0.7081
  382WAT      O 1589   1.419   3.427   2.149  0.0087 -0.3855  0.0153
  382WAT     H1 1590   1.478   3.365   2.191 -0.0893 -0.4765  0.0196
  382WAT     H2 1591   1.344   3.433   2.209  0.3122  0.2417  0.3453
  382WAT    EPW 1592   1.417   3.420   2.162  0.0358 -0.3148  0.0594
  383WAT      O 1593   1.252   2.038   0.654  0.0569  0.3926 -0.1028
  383WAT     H1 1594   1.238   2.113   0.711 -1.2829  0.2767 -0.2496
  383WAT     H2 1595   1.325   1.990   0.694  0.0700  1.0738  0.7018
  383WAT    EPW 1596   1.260   2.041   0.667 -0.1181  0.4671 -0.0160
  384WAT      O 1597   2.953   0.218   2.928 -0.0506 -0.2071  0.1848
  384WAT     H1 1598   3.027   0.179   2.974 -1.4002 -2.7150  0.4038
  384WAT     H2 1599   2.890   0.239   2.997  0.5228  2.2251  0.0366
  384WAT    EPW 1600   2.954   0.215   2.943 -0.1529 -0.2171  0.1941
  385WAT      O 1601   1.166   2.132   3.786 -0.3321 -0.1949 -0.1999
  385WAT     H1 1602   1.258   2.107   3.795 -0.9036 -2.4115 -0.0981
  385WAT     H2 1603   1.134   2.082   3.710 -1.1074  1.6959 -1.1973
  385WAT    EPW 1604   1.174   2.122   3.777 -0.5097 -0.2379 -0.3180
  386WAT      O 1605   0.824   2.024   3.846  0.3902  0.1756  0.4360
  386WAT     H1 1606   0.877   1.981   3.779 -1.1124  0.4874 -1.0402
  386WAT     H2 1607   0.772   1.953   3.884  1.2094  0.0063  1.2774
  386WAT    EPW 1608   0.824   2.009   3.842  0.3000  0.1944  0.3523
  387WAT      O 1609   2.377   0.764   1.272  0.2044  0.3493 -0.1004
  387WAT     H1 1610   2.367   0.846   1.319  1.4410  1.9033 -2.3145
  387WAT     H2 1611   2.292   0.748   1.232  0.4757  1.7583 -1.3477
  387WAT    EPW 1612   2.365   0.773   1.273  0.4033  0.7401 -0.5569
  388WAT      O 1613   2.339   0.623   3.335 -0.3032 -0.3454  0.1184
  388WAT     H1 1614   2.420   0.606   3.383 -0.1904  0.8670  0.3924
  388WAT     H2 1615   2.361   0.608   3.243 -0.1772 -1.4393  0.3118
  388WAT    EPW 1616   2.352   0.619   3.329 -0.2717 -0.3297  0.1800
  389WAT      O 1617   3.393   0.303   3.265 -0.2620 -0.2683 -0.0916
  389WAT     H1 1618   3.436   0.218   3.275  0.2938 -0.1553 -1.3214
  389WAT     H2 1619   3.465   0.366   3.270 -0.4008 -0.0112 -1.1867
  389WAT    EPW 1620   3.408   0.300   3.267 -0.2070 -0.2195 -0.3982
  390WAT      O 1621   2.482   3.324   0.555  0.1728 -0.4144 -0.4525
  390WAT     H1 1622   2.515   3.235   0.544 -0.2273 -1.0339  2.4908
  390WAT     H2 1623   2.535   3.377   0.496  1.2058 -2.4205 -1.4366
  390WAT    EPW 1624   2.493   3.319   0.546  0.2563 -0.7607 -0.1941
  391WAT      O 1625   3.680   2.929   3.918 -0.3618 -0.1453 -0.1184
  391WAT     H1 1626   3.701   2.964   4.005  1.2276  0.4667 -0.7084
  391WAT     H2 1627   3.608   2.983   3.887 -0.0874  0.4798  0.3087
  391WAT    EPW 1628   3.673   2.941   3.926 -0.1160  0.0179 -0.1399
  392WAT      O 1629   0.550   0.286   1.647 -0.1620  0.7311  0.6839
  392WAT     H1 1630   0.496   0.215   1.681 -1.1513  0.4705 -1.2911
  392WAT     H2 1631   0.515   0.365   1.687 -0.3607  0.3208  1.3377
  392WAT    EPW 1632   0.538   0.287   1.657 -0.3187  0.6426  0.5096
  393WAT      O 1633   1.567   3.700   3.317 -0.1337 -0.2158  0.2860
  393WAT     H1 1634   1.562   3.617   3.365  0.0341 -1.0547 -1.0981
  393WAT     H2 1635   1.483   3.707   3.273  0.4143 -0.4197 -0.8129
  393WAT    EPW 1636   1.555   3.690   3.318 -0.0393 -0.3534 -0.0415
  394WAT      O 1637   2.084   3.197   3.651  0.2882  0.7698 -0.4168
  394WAT     H1 1638   2.036   3.164   3.727  2.2212  0.1002  0.5905
  394WAT     H2 1639   2.044   3.282   3.632 -0.8972  0.4928  0.7067
  394WAT    EPW 1640   2.072   3.204   3.658  0.3868  0.6450 -0.1358
  395WAT      O 1641   3.655   1.477   3.767 -0.3928  0.4101 -0.1052
  395WAT     H1 1642   3.661   1.489   3.862  1.0197  0.0805 -0.1312
  395WAT     H2 1643   3.564   1.451   3.752 -1.0483  1.9418  0.9692
  395WAT    EPW 1644   3.643   1.475   3.778 -0.2930  0.5686  0.0331
  396WAT      O 1645   2.028   0.892   3.637 -0.1500 -0.3761  0.4215
  396WAT     H1 1646   2.096   0.890   3.704  1.1912 -0.0382 -0.8783
  396WAT     H2 1647   1.998   0.983   3.637  0.4983 -0.1518 -0.0349
  396WAT    EPW 1648   2.033   0.904   3.646  0.1125 -0.3019  0.1899
  397WAT      O 1649   3.239   0.163   3.018 -0.3365 -0.7506 -0.1739
  397WAT     H1 1650   3.286   0.204   2.945  0.1230 -1.2049 -0.1346
  397WAT     H2 1651   3.273   0.206   3.096 -1.4942  0.4028 -0.2614
  397WAT    EPW 1652   3.249   0.174   3.018 -0.4286 -0.6584 -0.1803
  398WAT      O 1653   2.290   0.417   2.957 -0.5759 -0.0612 -0.0287
  398WAT     H1 1654   2.290   0.325   2.986 -0.2363  0.4393  1.6577
  398WAT     H2 1655   2.201   0.447   2.975 -0.0210  0.6124  1.8136
  398WAT    EPW 1656   2.278   0.409   2.963 -0.4579  0.0936  0.4367
  399WAT      O 1657   2.025   3.548   1.614 -0.4771 -0.3436 -0.2251
  399WAT     H1 1658   2.087   3.481   1.586  0.1944  0.0498  0.2716
  399WAT     H2 1659   1.985   3.511   1.693  1.3847  0.6195  1.2737
  399WAT    EPW 1660   2.028   3.534   1.621 -0.1430 -0.1647  0.0381
  400WAT      O 1661   1.998   1.653   0.455  0.2215  0.1827 -0.2808
  400WAT     H1 1662   1.994   1.742   0.490 -0.4377 -0.2353  0.7429
  400WAT     H2 1663   1.943   1.655   0.377  0.3199  0.7037 -0.3394
  400WAT    EPW 1664   1.990   1.665   0.450  0.1475  0.1963 -0.1535
  401WAT      O 1665   0.163   0.857   0.652  0.4846 -0.3135 -0.0159
  401WAT     H1 1666   0.113   0.938   0.647  0.2066 -0.4789  0.0219
  401WAT     H2 1667   0.253   0.882   0.632  0.4915  0.0893  0.5247
  401WAT    EPW 1668   0.168   0.871   0.649  0.4489 -0.2822  0.0604
  402WAT      O 1669   0.050   1.256   1.588 -0.3704  0.3452 -0.3177
  402WAT     H1 1670   0.076   1.268   1.680  0.8847  0.6752 -0.6917
  402WAT     H2 1671   0.012   1.168   1.586 -1.8345  0.9018  0.7999
  402WAT    EPW 1672   0.049   1.246   1.600 -0.3980  0.4621 -0.2196
  403WAT      O 1673   0.393   3.344   1.042  0.6999 -0.3906 -0.2938
  403WAT     H1 1674   0.410   3.265   1.093 -0.1672 -1.1762 -1.1650
  403WAT     H2 1675   0.306   3.373   1.071  0.3131 -0.6969 -1.1123
  403WAT    EPW 1676   0.384   3.337   1.053  0.5345 -0.5346 -0.5166
  404WAT      O 1677   3.398   1.405   2.859  0.3062 -0.1702  0.0691
  404WAT     H1 1678   3.307   1.377   2.862  0.7570 -1.6602  0.9123
  404WAT     H2 1679   3.440   1.345   2.797  1.1151 -0.8184  1.2157
  404WAT    EPW 1680   3.392   1.393   2.851  0.4724 -0.4522  0.3316
  405WAT      O 1681   1.567   3.927   3.021  0.1668  0.1877  0.5784
  405WAT     H1 1682   1.513   3.872   2.965  0.7005  1.1344 -0.9363
  405WAT     H2 1683   1.644   3.874   3.039  1.1782  0.7001 -1.7517
  405WAT    EPW 1684   1.570   3.913   3.016  0.3706  0.3801  0.0713
  406WAT      O 1685   2.994   1.766   0.324 -0.5592 -0.3944  0.0109
  406WAT     H1 1686   3.044   1.685   0.322 -2.0050 -1.3175 -0.1606
  406WAT     H2 1687   2.937   1.761   0.248 -0.7774  0.7190  0.0865
  406WAT    EPW 1688   2.993   1.755   0.314 -0.7787 -0.3693 -0.0017
  407WAT      O 1689   1.502   3.259   1.354  0.3757  0.4724 -0.1305
  407WAT     H1 1690   1.509   3.219   1.441 -0.8111  0.8080  0.1352
  407WAT     H2 1691   1.432   3.211   1.311 -0.4924  1.6826 -0.1160
  407WAT    EPW 1692   1.494   3.248   1.360  0.1047  0.6763 -0.0935
  408WAT      O 1693   0.168   1.328   1.352  0.7285  0.0736 -0.2742
  408WAT     H1 1694   0.145   1.307   1.443 -0.7998  0.4887 -0.5455
  408WAT     H2 1695   0.235   1.396   1.360  1.0331 -0.3084  0.5439
  408WAT    EPW 1696   0.174   1.334   1.365  0.5671  0.0779 -0.2021
  409WAT      O 1697   0.908   3.727   0.139 -0.0490 -0.5867 -0.4261
  409WAT     H1 1698   0.963   3.764   0.208 -0.1986 -0.8884 -0.1430
  409WAT     H2 1699   0.920   3.786   0.065  2.8280 -2.0697 -1.3361
  409WAT    EPW 1700   0.917   3.739   0.139  0.3107 -0.8221 -0.5088
  410WAT      O 1701   0.252   0.426   3.157  0.4356 -0.2953  0.0600
  410WAT     H1 1702   0.167   0.435   3.115  1.3994 -0.6623 -2.1066
  410WAT     H2 1703   0.245   0.478   3.237 -0.7575  2.4251 -1.6785
  410WAT    EPW 1704   0.240   0.434   3.162  0.4054  0.0151 -0.4550
  411WAT      O 1705   3.020   0.153   3.995  0.5839 -0.0300 -0.2286
  411WAT     H1 1706   3.034   0.074   4.047 -0.5588  0.2150  0.4883
  411WAT     H2 1707   2.931   0.144   3.962  0.4499  0.9526 -0.1549
  411WAT    EPW 1708   3.010   0.141   3.998  0.4155  0.1320 -0.1243
  412WAT      O 1709   0.568   2.646   3.176 -0.6923 -0.0134 -0.4612
  412WAT     H1 1710   0.562   2.696   3.095  1.7963 -0.1017 -0.7888
  412WAT     H2 1711   0.651   2.674   3.216 -0.1388 -2.4355  0.3065
  412WAT    EPW 1712   0.578   2.656   3.171 -0.2910 -0.3445 -0.4032
  413WAT      O 1713   1.631   0.917   2.652 -0.0315  0.1163  0.1292
  413WAT     H1 1714   1.690   0.975   2.701  1.3589 -1.8689  0.9705
  413WAT     H2 1715   1.680   0.893   2.574 -1.2037  1.1968 -0.9853
  413WAT    EPW 1716   1.645   0.921   2.648 -0.0028 -0.0030  0.0932
  414WAT      O 1717   1.525   2.935   3.641 -0.0420 -0.3155  0.4202
  414WAT     H1 1718   1.448   2.948   3.586 -0.2575  0.4513  0.8806
  414WAT     H2 1719   1.492   2.894   3.720  0.5973 -3.6985 -0.9040
  414WAT    EPW 1720   1.511   2.932   3.644  0.0139 -0.6606  0.3063
  415WAT      O 1721   1.655   1.542   3.213 -0.1459 -0.2148  0.2626
  415WAT     H1 1722   1.627   1.623   3.170  1.6209  0.1192 -0.3492
  415WAT     H2 1723   1.626   1.552   3.303  0.2318  1.2143  0.2542
  415WAT    EPW 1724   1.647   1.554   3.219  0.1369  0.0177  0.1808
  416WAT      O 1725   1.871   1.131   1.397 -0.1246  1.0903 -0.0391
  416WAT     H1 1726   1.818   1.073   1.451 -0.7069  1.7277  0.0943
  416WAT     H2 1727   1.808   1.192   1.359  0.0267 -0.3474 -2.8096
  416WAT    EPW 1728   1.855   1.132   1.399 -0.1814  0.9848 -0.3869
  417WAT      O 1729   3.497   0.771   2.554 -0.3287 -0.3817  0.3782
  417WAT     H1 1730   3.520   0.679   2.545  0.9914  0.0147 -0.6085
  417WAT     H2 1731   3.561   0.806   2.617  3.0356  1.0203 -3.3352
  417WAT    EPW 1732   3.509   0.764   2.561  0.2891 -0.1445 -0.2417
  418WAT      O 1733   2.137   0.395   1.249  0.0040  0.1534  0.1968
  418WAT     H1 1734   2.232   0.403   1.248  0.0045  0.3390 -1.4199
  418WAT     H2 1735   2.119   0.321   1.306  1.0958  0.2521  0.6896
  418WAT    EPW 1736   2.147   0.387   1.256  0.1481  0.1909  0.0486
  419WAT      O 1737   1.165   3.716   1.461 -0.3605  0.6892 -0.1408
  419WAT     H1 1738   1.126   3.728   1.375  0.0144 -0.5502 -0.5069
  419WAT     H2 1739   1.254   3.684   1.443 -0.4637 -0.1072  0.6993
  419WAT    EPW 1740   1.172   3.713   1.447 -0.3247  0.4207 -0.0783
  420WAT      O 1741   1.674   2.232   3.607 -0.3266  0.0245 -0.3034
  420WAT     H1 1742   1.713   2.278   3.534 -0.0506  1.6976  0.8426
  420WAT     H2 1743   1.741   2.170   3.637  0.1749  0.5099 -0.4291
  420WAT    EPW 1744   1.688   2.230   3.602 -0.2241  0.3092 -0.1688
  421WAT      O 1745   2.106   2.335   3.053  0.1991 -0.2603  0.2017
  421WAT     H1 1746   2.140   2.340   3.142 -0.0759  0.5730  0.2716
  421WAT     H2 1747   2.181   2.307   3.000  0.3864 -0.6699  0.6779
  421WAT    EPW 1748   2.121   2.332   3.058  0.1876 -0.2044  0.2737
  422WAT      O 1749   3.486   0.813   3.211  0.1388 -0.7464 -0.0555
  422WAT     H1 1750   3.437   0.731   3.222  0.0084 -0.5327  1.1187
  422WAT     H2 1751   3.419   0.878   3.188  0.1608 -0.8576 -0.4335
  422WAT    EPW 1752   3.470   0.811   3.209  0.1245 -0.7329  0.0495
  423WAT      O 1753   0.075   2.751   0.568  0.2833  0.1432  0.2621
  423WAT     H1 1754   0.091   2.658   0.553 -1.0859 -0.1313  0.4081
  423WAT     H2 1755   0.028   2.780   0.490  0.2104  0.5835  0.4684
  423WAT    EPW 1756   0.071   2.742   0.556  0.0931  0.1651  0.3085
  424WAT      O 1757   1.475   0.943   3.172  0.0952  0.2011  0.3105
  424WAT     H1 1758   1.540   0.940   3.102 -1.1006 -3.6191 -0.9290
  424WAT     H2 1759   1.392   0.962   3.127 -0.4933 -1.0882  0.7753
  424WAT    EPW 1760   1.472   0.945   3.157 -0.1401 -0.4728  0.2083
  425WAT      O 1761   3.462   1.136   2.201  0.2845 -0.0683  0.7931
  425WAT     H1 1762   3.408   1.204   2.241  2.0018  1.5098  0.6127
  425WAT     H2 1763   3.446   1.145   2.107  0.7635  0.3752  0.7424
  425WAT    EPW 1764   3.453   1.147   2.194  0.5742  0.1984  0.7626
  426WAT      O 1765   1.057   3.499   0.093  0.2397 -0.2079 -0.2201
  426WAT     H1 1766   1.010   3.582   0.097 -1.9382 -1.3443 -0.9550
  426WAT     H2 1767   0.990   3.433   0.073  2.0072 -2.0501 -0.4746
  426WAT    EPW 1768   1.042   3.501   0.091  0.1855 -0.6007 -0.3506
  427WAT      O 1769   1.023   3.517   1.956  0.3292  0.1745  0.4928
  427WAT     H1 1770   1.012   3.499   1.863  1.2244  0.1873  0.3804
  427WAT     H2 1771   1.113   3.546   1.965 -0.2102  1.8033  1.1117
  427WAT    EPW 1772   1.033   3.518   1.945  0.3761  0.3910  0.5596
  428WAT      O 1773   0.307   3.668   0.104 -0.2132 -0.0697  0.3461
  428WAT     H1 1774   0.347   3.631   0.183 -0.7719 -1.4232  0.0312
  428WAT     H2 1775   0.303   3.594   0.043  0.3154  0.9694 -1.0068
  428WAT    EPW 1776   0.312   3.653   0.106 -0.2172 -0.1111  0.1262
  429WAT      O 1777   0.776   0.689   3.737 -0.0482 -0.9004  0.2304
  429WAT     H1 1778   0.714   0.659   3.671 -0.2648  0.6410 -0.3023
  429WAT     H2 1779   0.853   0.716   3.687 -0.1853  0.2133  0.5947
  429WAT    EPW 1780   0.778   0.688   3.722 -0.0948 -0.5502  0.2082
  430WAT      O 1781   2.932   2.185   3.512 -0.1748 -0.4517 -0.5369
  430WAT     H1 1782   3.018   2.153   3.537  0.0046  0.0758 -0.4742
  430WAT     H2 1783   2.902   2.123   3.446  0.2792 -0.5983 -0.6080
  430WAT    EPW 1784   2.939   2.173   3.507 -0.0912 -0.4014 -0.5380
  431WAT      O 1785   1.115   2.059   0.041  0.2717  0.1571  0.0428
  431WAT     H1 1786   1.148   2.137   0.085  0.4103 -0.5982  1.3160
  431WAT     H2 1787   1.102   2.087  -0.050 -0.3845  1.8513  0.6163
  431WAT    EPW 1788   1.118   2.073   0.035  0.2035  0.2809  0.2864
  432WAT      O 1789   1.997   4.143   1.170 -0.4786  0.0252 -0.0624
  432WAT     H1 1790   2.014   4.052   1.193 -1.5920 -0.2723 -0.3657
  432WAT     H2 1791   1.918   4.140   1.116  1.3013  0.8419 -2.9399
  432WAT    EPW 1792   1.989   4.131   1.166 -0.3907  0.0937 -0.4819
  433WAT      O 1793   1.270   3.825   3.439 -0.2617 -0.6953 -0.3233
  433WAT     H1 1794   1.238   3.913   3.416 -0.4756 -1.0848 -1.5815
  433WAT     H2 1795   1.297   3.787   3.356 -0.0979 -1.8004  0.2214
  433WAT    EPW 1796   1.269   3.832   3.425 -0.2683 -0.8925 -0.4174
  434WAT      O 1797   3.599   2.352   2.295  0.0874  0.1551 -0.1687
  434WAT     H1 1798   3.512   2.369   2.331  0.0130 -0.8999  0.1993
  434WAT     H2 1799   3.609   2.257   2.302  0.1178 -0.1226 -2.8385
  434WAT    EPW 1800   3.589   2.342   2.300  0.0816 -0.0207 -0.4723
  435WAT      O 1801   0.378   3.417   2.030  0.9850 -0.4788 -0.4649
  435WAT     H1 1802   0.443   3.468   2.079  0.7036 -0.7000  0.1509
  435WAT     H2 1803   0.426   3.385   1.954  0.7534  2.0413 -1.7752
  435WAT    EPW 1804   0.393   3.419   2.027  0.9173 -0.1756 -0.5565
  436WAT      O 1805   0.765   3.858   0.922  0.4961  0.1916 -0.1795
  436WAT     H1 1806   0.766   3.812   0.838  0.9452  0.1634 -0.1611
  436WAT     H2 1807   0.673   3.857   0.949 -0.0525  2.1716 -1.7494
  436WAT    EPW 1808   0.753   3.852   0.915  0.4830  0.4490 -0.3841
  437WAT      O 1809   1.227   0.807   1.342 -0.2812  0.1215  0.0643
  437WAT     H1 1810   1.271   0.727   1.314 -0.4337  0.1407 -0.2393
  437WAT     H2 1811   1.135   0.783   1.348 -0.1881 -0.0261  1.0972
  437WAT    EPW 1812   1.221   0.794   1.339 -0.2890  0.1045  0.1605
  438WAT      O 1813   2.660   4.051   1.747 -0.1549  0.4345 -0.0893
  438WAT     H1 1814   2.629   4.141   1.759 -0.5092  0.2624  0.2962
  438WAT     H2 1815   2.705   4.052   1.662  0.8248  1.2364  0.4237
  438WAT    EPW 1816   2.662   4.063   1.737 -0.0724  0.5175  0.0292
  439WAT      O 1817   0.007   0.059   2.799 -0.1520  0.1754  0.2332
  439WAT     H1 1818   0.074   0.055   2.731 -0.2580  0.5383  0.1052
  439WAT     H2 1819  -0.071   0.090   2.754  0.0304  1.3753  0.7070
  439WAT    EPW 1820   0.006   0.063   2.784 -0.1419  0.3816  0.2788
  440WAT      O 1821   3.335   2.753   1.253 -0.1675  0.3149 -0.4343
  440WAT     H1 1822   3.396   2.684   1.279  0.2102  0.3911 -1.1011
  440WAT     H2 1823   3.270   2.755   1.324  2.2071  2.2418  1.9067
  440WAT    EPW 1824   3.335   2.744   1.266  0.1955  0.5791 -0.2135
  441WAT      O 1825   1.123   0.188   1.369 -0.0016  0.2328 -0.0838
  441WAT     H1 1826   1.105   0.146   1.453  1.2560 -0.8021 -0.2922
  441WAT     H2 1827   1.098   0.122   1.304 -1.3483  1.1821 -0.5506
  441WAT    EPW 1828   1.117   0.173   1.372 -0.0134  0.2215 -0.1729
  442WAT      O 1829   2.645   4.010   1.280 -0.2682  0.2010  0.0145
  442WAT     H1 1830   2.725   4.034   1.326  0.2066 -0.7227 -0.3137
  442WAT     H2 1831   2.600   4.093   1.266  0.5280  0.7065  0.3981
  442WAT    EPW 1832   2.650   4.024   1.284 -0.1005  0.1458  0.0218
  443WAT      O 1833   2.689   3.324   1.138  0.1097 -0.2586 -0.1715
  443WAT     H1 1834   2.721   3.239   1.170 -4.2969 -2.2517 -0.2610
  443WAT     H2 1835   2.694   3.317   1.042  1.5453  0.4713 -0.1748
  443WAT    EPW 1836   2.694   3.312   1.129 -0.2822 -0.4252 -0.1837
  444WAT      O 1837   0.011   3.089   0.284 -0.0814 -0.1946 -0.7288
  444WAT     H1 1838   0.065   3.055   0.213  0.4101 -0.8835 -0.0354
  444WAT     H2 1839  -0.035   3.012   0.319  1.8739 -0.4243  1.5705
  444WAT    EPW 1840   0.012   3.074   0.279  0.2413 -0.3158 -0.3341
  445WAT      O 1841   2.448   3.342   1.997  0.2730 -0.4793 -0.3111
  445WAT     H1 1842   2.470   3.253   2.027  0.2482 -0.2036  0.5406
  445WAT     H2 1843   2.437   3.392   2.078  1.0063  0.4836 -0.7986
  445WAT    EPW 1844   2.449   3.337   2.012  0.3665 -0.3159 -0.2631
  446WAT      O 1845   3.078   4.054   1.259  0.0638 -0.2556 -0.4716
  446WAT     H1 1846   3.061   4.066   1.165  0.3615 -0.1255 -0.5095
  446WAT     H2 1847   3.076   3.959   1.271  1.4784 -0.3553 -0.8962
  446WAT    EPW 1848   3.075   4.043   1.248  0.2896 -0.2516 -0.5326
  447WAT      O 1849   2.274   3.048   0.946 -0.2353 -0.1169 -0.1251
  447WAT     H1 1850   2.322   3.059   1.028 -1.1260  0.6599  0.3040
  447WAT     H2 1851   2.321   2.977   0.901  0.4389 -0.3594  0.9143
  447WAT    EPW 1852   2.287   3.040   0.951 -0.2639 -0.0465  0.0686
  448WAT      O 1853   1.805   0.264   2.315  0.2700 -0.2562 -0.3283
  448WAT     H1 1854   1.802   0.312   2.232 -0.2301  0.4693  0.0925
  448WAT     H2 1855   1.715   0.269   2.348  0.4808 -0.4733  0.2892
  448WAT    EPW 1856   1.793   0.271   2.308  0.2318 -0.1892 -0.1913
  449WAT      O 1857   0.031   2.926   1.476 -0.4372 -0.1103  0.1745
  449WAT     H1 1858  -0.012   2.939   1.392 -2.1187  0.3599  1.0521
  449WAT     H2 1859   0.080   3.007   1.492  0.8131 -0.6365 -0.8190
  449WAT    EPW 1860   0.032   2.938   1.467 -0.4941 -0.1177  0.1592
  450WAT      O 1861   3.548   3.139   2.789  0.3544  0.0493  0.4197
  450WAT     H1 1862   3.522   3.196   2.861  0.8559 -1.9500  2.2937
  450WAT     H2 1863   3.621   3.088   2.824  1.1977 -0.4009 -1.8248
  450WAT    EPW 1864   3.554   3.140   2.803  0.5318 -0.2738  0.3709
  451WAT      O 1865   1.976   2.959   2.259 -0.3403  0.9700  0.4401
  451WAT     H1 1866   1.986   3.035   2.316  1.7252  1.7410 -0.8081
  451WAT     H2 1867   2.039   2.975   2.188 -1.3148 -0.9363 -0.9329
  451WAT    EPW 1868   1.986   2.971   2.257 -0.1964  0.8202  0.0944
  452WAT      O 1869   1.607   1.410   2.670 -0.7533 -0.8782 -0.5301
  452WAT     H1 1870   1.649   1.392   2.754 -1.0606 -2.6476 -0.7203
  452WAT     H2 1871   1.608   1.326   2.624 -1.8262 -0.2616 -1.7487
  452WAT    EPW 1872   1.613   1.396   2.675 -0.9354 -1.0302 -0.7159
  453WAT      O 1873   2.311   2.292   2.851  0.2240  0.2705 -0.2220
  453WAT     H1 1874   2.315   2.372   2.798 -1.1158 -0.6280 -1.7837
  453WAT     H2 1875   2.265   2.229   2.795 -0.9373 -0.8696  1.9020
  453WAT    EPW 1876   2.306   2.294   2.836 -0.1059  0.0016 -0.1478
  454WAT      O 1877   2.405   1.239   3.936  0.2508 -0.4929 -0.0090
  454WAT     H1 1878   2.325   1.211   3.892 -0.0234 -0.6267  0.5576
  454WAT     H2 1879   2.386   1.328   3.968  0.7652 -0.0359 -0.9318
  454WAT    EPW 1880   2.392   1.247   3.935  0.2825 -0.4503 -0.0560
  455WAT      O 1881   1.605   1.649   3.490  0.1700 -0.2156 -0.2553
  455WAT     H1 1882   1.690   1.643   3.533 -1.0236 -2.6855  2.0688
  455WAT     H2 1883   1.554   1.707   3.547 -0.6474 -1.4105  0.2710
  455WAT    EPW 1884   1.609   1.656   3.503 -0.0952 -0.6990  0.1207
  456WAT      O 1885   2.262   1.855   2.904 -0.1961 -0.0859 -0.1492
  456WAT     H1 1886   2.188   1.896   2.858 -0.2416 -1.3699 -1.2875
  456WAT     H2 1887   2.284   1.779   2.850  1.0082 -0.5616  0.9704
  456WAT    EPW 1888   2.255   1.850   2.891 -0.0433 -0.3180 -0.1516
  457WAT      O 1889   1.338   1.540   2.550  0.2404  0.3723 -0.6684
  457WAT     H1 1890   1.307   1.473   2.490 -1.0901  0.4697 -0.1324
  457WAT     H2 1891   1.425   1.563   2.518  0.7851 -1.6908 -0.7780
  457WAT    EPW 1892   1.345   1.534   2.538  0.1367  0.1130 -0.6122
  458WAT      O 1893   1.325   1.188   3.381 -0.1107  0.2764 -0.0815
  458WAT     H1 1894   1.410   1.216   3.415 -0.6697  0.3784  1.3015
  458WAT     H2 1895   1.330   1.207   3.287  0.1640  3.5662  0.4634
  458WAT    EPW 1896   1.337   1.194   3.373 -0.1482  0.7238  0.1728
  459WAT      O 1897   3.334   3.687   1.584  0.1047  0.0166  0.1035
  459WAT     H1 1898   3.314   3.604   1.541  2.4453 -0.7889  0.4171
  459WAT     H2 1899   3.368   3.743   1.515  0.0804  0.1347  0.1860
  459WAT    EPW 1900   3.335   3.683   1.569  0.4102 -0.0741  0.1557
  460WAT      O 1901   0.506   0.541   3.089  0.5491 -0.1821 -0.6509
  460WAT     H1 1902   0.415   0.514   3.105 -0.1330  2.3154  0.1401
  460WAT     H2 1903   0.555   0.505   3.163 -0.5937  1.8701  1.2038
  460WAT    EPW 1904   0.500   0.532   3.101  0.3084  0.4180 -0.3020
  461WAT      O 1905   0.291   1.300   3.133 -0.0869 -0.2317 -0.6439
  461WAT     H1 1906   0.355   1.292   3.203 -0.8403  0.0982  0.0947
  461WAT     H2 1907   0.325   1.244   3.063  0.8280 -0.3235 -0.1451
  461WAT    EPW 1908   0.304   1.292   3.133 -0.0656 -0.2003 -0.4807
  462WAT      O 1909   0.437   2.984   1.660 -0.6507  0.2388 -0.4735
  462WAT     H1 1910   0.438   2.901   1.707 -0.8502 -0.2245 -1.2740
  462WAT     H2 1911   0.350   3.020   1.675 -0.5966  0.2702 -0.2115
  462WAT    EPW 1912   0.426   2.978   1.668 -0.6699  0.1818 -0.5445
  463WAT      O 1913   1.957   3.497   1.886  0.1737  0.1019  0.3343
  463WAT     H1 1914   1.887   3.483   1.950  0.1257  0.3467  0.3384
  463WAT     H2 1915   2.023   3.432   1.908  1.2750  1.6950  2.2016
  463WAT    EPW 1916   1.957   3.487   1.898  0.3127  0.3443  0.5811
  464WAT      O 1917   2.458   0.082   1.589  0.4968  0.3085  0.2557
  464WAT     H1 1918   2.417   0.168   1.585  1.3697  0.9004  2.4103
  464WAT     H2 1919   2.392   0.021   1.557 -0.9319  1.5463  0.7646
  464WAT    EPW 1920   2.444   0.086   1.585  0.4235  0.5498  0.6070
  465WAT      O 1921   2.655   0.957   2.738 -0.0121 -0.5110  0.0622
  465WAT     H1 1922   2.634   0.991   2.651 -0.1770 -0.0343  0.2874
  465WAT     H2 1923   2.708   1.025   2.779 -1.8071  0.2988  1.1760
  465WAT    EPW 1924   2.659   0.970   2.732 -0.2706 -0.3414  0.2388
  466WAT      O 1925   2.445   2.239   3.838  0.3984 -0.0155 -0.9260
  466WAT     H1 1926   2.353   2.251   3.862  0.6939  0.8567 -0.1740
  466WAT     H2 1927   2.443   2.171   3.771 -0.7952 -0.0080 -0.9265
  466WAT    EPW 1928   2.432   2.231   3.833  0.2800  0.1005 -0.8269
  467WAT      O 1929   1.565   0.086   1.547  0.0663  0.3838  0.0186
  467WAT     H1 1930   1.494   0.126   1.598  0.5102  0.4659  0.5840
  467WAT     H2 1931   1.629   0.059   1.613  0.3690 -0.0771 -0.4566
  467WAT    EPW 1932   1.564   0.088   1.562  0.1647  0.3338  0.0305
  468WAT      O 1933   2.723   0.185   3.946 -0.0342  0.0694  0.3187
  468WAT     H1 1934   2.649   0.235   3.911  1.2190  1.5381 -0.3835
  468WAT     H2 1935   2.730   0.214   4.037 -0.0503  0.2731  0.2563
  468WAT    EPW 1936   2.714   0.195   3.954  0.1290  0.2900  0.2179
  469WAT      O 1937   1.954   2.511   1.659 -0.2889  0.2806  0.3706
  469WAT     H1 1938   1.921   2.520   1.570 -1.4463  0.3256  0.7912
  469WAT     H2 1939   1.992   2.423   1.661 -0.1451  0.3277 -0.2035
  469WAT    EPW 1940   1.955   2.500   1.647 -0.4226  0.2927  0.3504
  470WAT      O 1941   0.255   3.623   0.461 -0.2145  0.2151 -0.0366
  470WAT     H1 1942   0.247   3.716   0.437  0.0814  0.5844  1.1851
  470WAT     H2 1943   0.180   3.581   0.421 -0.9484  1.1936  0.2783
  470WAT    EPW 1944   0.244   3.630   0.453 -0.2723  0.3929  0.1661
  471WAT      O 1945   2.604   3.634   2.047 -0.1876  0.0086  0.1104
  471WAT     H1 1946   2.632   3.704   1.988  2.4939 -0.1097  1.0768
  471WAT     H2 1947   2.686   3.591   2.073 -1.2822 -0.3540  3.3964
  471WAT    EPW 1948   2.619   3.637   2.042  0.0217 -0.0549  0.6712
  472WAT      O 1949   1.353   2.898   3.399  0.4436  0.3243 -0.0872
  472WAT     H1 1950   1.306   2.915   3.318  0.9851  2.2705 -0.0426
  472WAT     H2 1951   1.318   2.815   3.430 -1.4627  0.6882 -1.1149
  472WAT    EPW 1952   1.342   2.890   3.393  0.2636  0.6290 -0.2169
  473WAT      O 1953   1.445   3.257   1.829  0.3125  0.7698  0.3980
  473WAT     H1 1954   1.402   3.343   1.831 -0.2966  0.4593  2.1101
  473WAT     H2 1955   1.374   3.195   1.846  0.9819  0.0396  0.5567
  473WAT    EPW 1956   1.430   3.260   1.831  0.3204  0.6325  0.6447
  474WAT      O 1957   3.196   0.082   1.691 -0.1555 -0.2204 -0.1725
  474WAT     H1 1958   3.164  -0.002   1.723  0.8372 -0.4393  0.2958
  474WAT     H2 1959   3.212   0.133   1.770 -0.2552  0.2203 -0.4359
  474WAT    EPW 1960   3.194   0.077   1.705 -0.0378 -0.1911 -0.1455
  475WAT      O 1961   0.889   4.247   3.074 -0.0675  0.0987  0.0362
  475WAT     H1 1962   0.834   4.200   3.136 -0.2396 -0.7688 -0.7601
  475WAT     H2 1963   0.890   4.192   2.996  2.4010 -0.1990  0.2178
  475WAT    EPW 1964   0.882   4.234   3.072  0.2354 -0.0550 -0.0449
  476WAT      O 1965   3.163   0.696   2.268  0.0749  0.2575  0.0629
  476WAT     H1 1966   3.192   0.778   2.230 -1.2412  0.4173 -0.6529
  476WAT     H2 1967   3.208   0.628   2.217 -0.3560  0.5039 -0.6519
  476WAT    EPW 1968   3.173   0.698   2.256 -0.1555  0.3111 -0.1258
  477WAT      O 1969   0.979   1.224   1.997  0.5278 -0.4883 -0.5930
  477WAT     H1 1970   0.889   1.212   2.025  0.6056 -0.5490 -0.3704
  477WAT     H2 1971   0.973   1.241   1.903  0.1289  1.4773 -0.2434
  477WAT    EPW 1972   0.967   1.225   1.988  0.4854 -0.2371 -0.5176
  478WAT      O 1973   0.905   3.638   0.498  0.4033  0.3450 -0.3676
  478WAT     H1 1974   0.940   3.719   0.460 -0.6710  0.6050 -0.8383
  478WAT     H2 1975   0.869   3.664   0.582  0.0624  0.3561 -0.5163
  478WAT    EPW 1976   0.905   3.652   0.504  0.2167  0.3808 -0.4493
  479WAT      O 1977   0.788   0.391   0.322  0.1730 -0.2223  0.1224
  479WAT     H1 1978   0.780   0.465   0.262 -2.7604 -0.9959 -0.5775
  479WAT     H2 1979   0.764   0.315   0.270 -1.8367 -1.0050  2.0203
  479WAT    EPW 1980   0.784   0.391   0.307 -0.4790 -0.4276  0.2804
  480WAT      O 1981   2.859   4.060   1.449 -0.4161  0.6896 -0.3309
  480WAT     H1 1982   2.932   4.070   1.387  0.6695  1.4277  1.0007
  480WAT     H2 1983   2.862   3.968   1.474  0.7571  0.9317  0.5001
  480WAT    EPW 1984   2.869   4.049   1.444 -0.1182  0.8189 -0.0456
  481WAT      O 1985   1.210   0.046   2.405 -0.3549  0.0560 -0.2623
  481WAT     H1 1986   1.164   0.099   2.339  1.3695  0.9685 -0.7877
  481WAT     H2 1987   1.233   0.108   2.474  1.1328 -0.1171 -0.5793
  481WAT    EPW 1988   1.207   0.061   2.405  0.0687  0.1535 -0.3734
  482WAT      O 1989   0.789   3.449   3.916  0.2151 -0.0315  0.2134
  482WAT     H1 1990   0.723   3.514   3.939 -1.3204 -1.1287 -0.9459
  482WAT     H2 1991   0.761   3.369   3.960  1.3251 -0.2910  0.4920
  482WAT    EPW 1992   0.777   3.447   3.925  0.1590 -0.2104  0.0973
  483WAT      O 1993   0.051   0.366   1.923  0.4048 -0.1277 -0.2074
  483WAT     H1 1994   0.034   0.389   1.832 -2.6470 -2.3814 -0.3468
  483WAT     H2 1995   0.111   0.292   1.919 -2.3976 -2.5298 -0.7288
  483WAT    EPW 1996   0.056   0.360   1.911 -0.3673 -0.7417 -0.2946
  484WAT      O 1997   1.719   2.843   3.941  0.6039  0.1603  0.4384
  484WAT     H1 1998   1.774   2.871   3.868 -0.3297  1.6902  0.2984
  484WAT     H2 1999   1.684   2.924   3.978 -2.4797 -0.7877 -0.1769
  484WAT    EPW 2000   1.722   2.857   3.936  0.0741  0.2371  0.3388
  485WAT      O 2001   2.515   2.130   2.683 -0.3528  0.0593  0.2437
  485WAT     H1 2002   2.472   2.187   2.747 -0.2343  0.3520  0.0662
  485WAT     H2 2003   2.553   2.059   2.735 -1.2947 -0.3581  0.3771
  485WAT    EPW 2004   2.514   2.128   2.698 -0.4614  0.0429  0.2379
  486WAT      O 2005   3.612   0.799   2.808  0.0794 -0.3856  0.1716
  486WAT     H1 2006   3.698   0.821   2.844 -0.2963  0.6740  0.4586
  486WAT     H2 2007   3.574   0.739   2.873  1.0082 -1.7384 -0.4831
  486WAT    EPW 2008   3.618   0.794   2.822  0.1524 -0.4243  0.1231
  487WAT      O 2009   2.340   3.158   3.549 -0.3589 -0.1406 -0.2062
  487WAT     H1 2010   2.250   3.171   3.578  0.4872  0.5036  2.4339
  487WAT     H2 2011   2.384   3.241   3.570  0.4365  0.4356 -3.5413
  487WAT    EPW 2012   2.334   3.171   3.556 -0.1424  0.0203 -0.2979
  488WAT      O 2013   3.351   2.419   1.734 -0.0819 -0.5880  0.6594
  488WAT     H1 2014   3.387   2.506   1.716  0.2921 -0.8005  0.3711
  488WAT     H2 2015   3.422   2.372   1.778 -0.5182 -0.5247  1.4439
  488WAT    EPW 2016   3.365   2.424   1.737 -0.0901 -0.6077  0.7248
  489WAT      O 2017   3.065   3.796   0.528 -0.5199 -0.0710  0.0719
  489WAT     H1 2018   3.007   3.860   0.567  0.0606  1.1299 -0.9733
  489WAT     H2 2019   3.104   3.749   0.603 -1.3044  0.4634  0.8264
  489WAT    EPW 2020   3.063   3.798   0.543 -0.5468  0.1579  0.0336
  490WAT      O 2021   2.522   2.899   3.151 -0.0328 -0.2588 -0.0568
  490WAT     H1 2022   2.433   2.927   3.171 -0.4169 -2.2943  1.3857
  490WAT     H2 2023   2.574   2.932   3.224 -0.1562 -1.5207  0.6337
  490WAT    EPW 2024   2.517   2.907   3.163 -0.0998 -0.6937  0.2245
  491WAT      O 2025   3.405   0.589   1.160 -0.1236 -0.1623 -0.2547
  491WAT     H1 2026   3.390   0.507   1.114 -0.9438 -0.6411  0.8167
  491WAT     H2 2027   3.383   0.657   1.096  0.7099 -0.7519 -1.1977
  491WAT    EPW 2028   3.400   0.587   1.146 -0.1219 -0.3032 -0.2377
  492WAT      O 2029   0.039   0.461   0.665  0.4155 -0.2530 -0.0294
  492WAT     H1 2030   0.031   0.484   0.572 -0.1117  2.1033  0.5117
  492WAT     H2 2031   0.107   0.520   0.698  0.7452 -1.2066  1.0369
  492WAT    EPW 2032   0.047   0.472   0.657  0.3894 -0.0680  0.1826
  493WAT      O 2033   1.402   4.129   1.920 -0.7244 -0.0922  0.1146
  493WAT     H1 2034   1.400   4.223   1.937  0.6581 -0.2251  1.1355
  493WAT     H2 2035   1.311   4.107   1.899 -1.2126  1.3337  0.5972
  493WAT    EPW 2036   1.390   4.139   1.919 -0.6064  0.0783  0.3129
  494WAT      O 2037   2.455   0.245   0.401  0.7429  0.0734 -0.4035
  494WAT     H1 2038   2.471   0.286   0.316  2.4032 -2.4092 -1.3813
  494WAT     H2 2039   2.541   0.214   0.429 -0.4132 -3.1069  0.0163
  494WAT    EPW 2040   2.469   0.247   0.394  0.8094 -0.6735 -0.4771
  495WAT      O 2041   3.695   3.807   2.073  0.1731  0.5458 -0.5464
  495WAT     H1 2042   3.734   3.853   1.999  0.8838  0.8819  0.0165
  495WAT     H2 2043   3.763   3.745   2.101 -1.3474 -2.1101 -2.3261
  495WAT    EPW 2044   3.709   3.805   2.067  0.0663  0.2399 -0.7069
  496WAT      O 2045   3.423   3.612   1.037  0.5113 -0.3467 -0.3555
  496WAT     H1 2046   3.356   3.675   1.063 -0.1261 -0.8164 -0.8388
  496WAT     H2 2047   3.492   3.666   0.997 -0.4006  0.0003 -1.5375
  496WAT    EPW 2048   3.423   3.628   1.035  0.3070 -0.3629 -0.5752
  497WAT      O 2049   0.976   4.102   2.863 -0.0783 -0.4007  0.2744
  497WAT     H1 2050   1.015   4.022   2.898 -1.3708 -1.1484  0.1082
  497WAT     H2 2051   0.918   4.071   2.793 -1.0122  0.6157  0.5665
  497WAT    EPW 2052   0.973   4.087   2.858 -0.3719 -0.3652  0.2910
  498WAT      O 2053   2.464   0.800   3.946 -0.1976 -0.0554  0.7093
  498WAT     H1 2054   2.396   0.790   4.013  0.3274  0.7352  1.3734
  498WAT     H2 2055   2.540   0.753   3.981 -0.8599 -2.4938 -0.8145
  498WAT    EPW 2056   2.465   0.792   3.959 -0.2157 -0.2727  0.5959
  499WAT      O 2057   3.550   0.360   1.583 -0.1349 -0.1086 -0.2944
  499WAT     H1 2058   3.537   0.369   1.489  0.6433  0.2539 -0.3784
  499WAT     H2 2059   3.636   0.318   1.591  0.7356  1.6620  0.2624
  499WAT    EPW 2060   3.560   0.355   1.572  0.0826  0.1728 -0.2320
  500WAT      O 2061   2.256   1.142   0.377 -0.3021 -0.0203 -0.5000
  500WAT     H1 2062   2.341   1.156   0.336  0.6286 -1.2702  0.8889
  500WAT     H2 2063   2.214   1.073   0.325  0.1448 -0.4020 -0.3549
  500WAT    EPW 2064   2.261   1.135   0.365 -0.1204 -0.2355 -0.2977
  501WAT      O 2065   1.128   0.844   0.567 -0.6098  0.1997 -0.1166
  501WAT     H1 2066   1.154   0.910   0.630 -0.7298  0.1746 -0.0398
  501WAT     H2 2067   1.088   0.775   0.619  2.6052 -1.5759  0.2116
  501WAT    EPW 2068   1.126   0.844   0.582 -0.2016 -0.0378 -0.0632
  502WAT      O 2069   0.635   1.473   1.550  0.0412  0.0838  0.4492
  502WAT     H1 2070   0.649   1.565   1.570 -1.0209  0.4230 -0.2540
  502WAT     H2 2071   0.648   1.428   1.633  0.5077  0.8682  0.8127
  502WAT    EPW 2072   0.638   1.479   1.563 -0.0374  0.2320  0.4044
  503WAT      O 2073   0.977   3.706   2.941  0.1003  0.5458  0.6057
  503WAT     H1 2074   1.002   3.726   2.850  2.3866 -0.2400  0.9917
  503WAT     H2 2075   0.993   3.788   2.988 -2.2646  1.3389  0.1621
  503WAT    EPW 2076   0.983   3.720   2.935  0.0899  0.5467  0.5981
  504WAT      O 2077   1.537   3.109   1.590  0.0632 -0.0069 -0.4864
  504WAT     H1 2078   1.522   3.150   1.675  1.2404 -0.8863  0.1732
  504WAT     H2 2079   1.457   3.058   1.574 -0.4471  0.7070 -0.2373
  504WAT    EPW 2080   1.524   3.107   1.599  0.1512 -0.0287 -0.3665
  505WAT      O 2081   0.265   3.550   1.794 -0.0492 -0.1487 -0.3917
  505WAT     H1 2082   0.353   3.575   1.768  0.3738 -0.4146  0.7510
  505WAT     H2 2083   0.275   3.511   1.880 -1.0528 -1.7321 -0.9438
  505WAT    EPW 2084   0.278   3.548   1.802 -0.1258 -0.3926 -0.3138
  506WAT      O 2085   2.719   4.181   3.950  0.2712  0.5619  0.6848
  506WAT     H1 2086   2.710   4.275   3.936  2.5206  0.8922  1.0452
  506WAT     H2 2087   2.675   4.166   4.034 -1.5991  0.9416 -0.1816
  506WAT    EPW 2088   2.712   4.192   3.959  0.3212  0.6555  0.6181
  507WAT      O 2089   0.361   3.433   3.947 -0.4422 -0.0462  0.1474
  507WAT     H1 2090   0.405   3.481   3.876 -0.0337 -1.0679 -0.3072
  507WAT     H2 2091   0.327   3.354   3.904 -3.4589  1.0488  0.2817
  507WAT    EPW 2092   0.362   3.429   3.932 -0.7862 -0.0365  0.1051
  508WAT      O 2093   2.586   4.008   2.092  0.5977 -0.3133 -0.2020
  508WAT     H1 2094   2.567   4.099   2.115 -0.2697 -0.3280 -0.7871
  508WAT     H2 2095   2.504   3.975   2.055  1.4038 -0.8116 -1.6313
  508WAT    EPW 2096   2.572   4.015   2.090  0.5896 -0.3809 -0.4677
  509WAT      O 2097   3.306   1.159   3.298  0.2173  0.2240 -0.0917
  509WAT     H1 2098   3.364   1.136   3.370  0.1218 -0.2632 -0.1675
  509WAT     H2 2099   3.280   1.249   3.316 -0.6120 -0.2124  1.0406
  509WAT    EPW 2100   3.310   1.168   3.310  0.0953  0.1022  0.0476
  510WAT      O 2101   1.429   3.817   1.861 -0.3428  0.3840 -0.0067
  510WAT     H1 2102   1.396   3.905   1.877  0.5862  0.9736 -1.1717
  510WAT     H2 2103   1.467   3.821   1.774  3.0478 -0.1271  1.2955
  510WAT    EPW 2104   1.430   3.829   1.852  0.2269  0.3944  0.0114
  511WAT      O 2105   1.788   3.587   0.883  0.3390 -0.1028  0.1708
  511WAT     H1 2106   1.785   3.654   0.815  1.5501  0.0606  0.2528
  511WAT     H2 2107   1.881   3.581   0.906 -0.0923  0.0917  2.0532
  511WAT    EPW 2108   1.800   3.595   0.877  0.4418 -0.0556  0.4298
  512WAT      O 2109   3.276   3.270   2.951 -0.6634 -0.1772  0.2079
  512WAT     H1 2110   3.268   3.213   3.027 -0.0714 -0.5611 -0.0138
  512WAT     H2 2111   3.359   3.316   2.963 -0.9414  0.3414  0.1821
  512WAT    EPW 2112   3.286   3.269   2.962 -0.6220 -0.1594  0.1752
  513WAT      O 2113   3.482   4.004   1.570  0.3384  0.1272  0.2886
  513WAT     H1 2114   3.466   4.097   1.561  2.3486  0.5282  0.3693
  513WAT     H2 2115   3.422   3.976   1.640 -0.8479  1.1537 -0.2810
  513WAT    EPW 2116   3.472   4.012   1.578  0.4471  0.3155  0.2241
  514WAT      O 2117   1.553   3.451   3.452 -0.1993 -0.0176  0.7331
  514WAT     H1 2118   1.558   3.360   3.481 -1.2346 -0.1390  0.5817
  514WAT     H2 2119   1.593   3.501   3.523  0.3461 -0.5825  0.8333
  514WAT    EPW 2120   1.559   3.446   3.465 -0.2639 -0.1081  0.7264
  515WAT      O 2121   3.372   1.123   1.286 -0.2879  0.6587  0.3330
  515WAT     H1 2122   3.321   1.121   1.205  0.4630 -0.1310 -0.1328
  515WAT     H2 2123   3.449   1.176   1.264 -0.6760  1.4788  0.9037
  515WAT    EPW 2124   3.375   1.130   1.272 -0.2401  0.6627  0.3468
  516WAT      O 2125   2.533   2.231   2.249 -0.1635 -0.2644  0.2575
  516WAT     H1 2126   2.544   2.299   2.315 -2.2007  0.9859 -0.5966
  516WAT     H2 2127   2.611   2.238   2.194 -0.2176  1.2167  0.3438
  516WAT    EPW 2128   2.545   2.240   2.250 -0.4393  0.0958  0.1562
  517WAT      O 2129   1.960   3.747   0.075 -0.1076 -0.0378  0.0585
  517WAT     H1 2130   2.003   3.760   0.159 -1.1204  0.9105  0.4469
  517WAT     H2 2131   1.911   3.827   0.060  0.1254 -0.1470 -1.4879
  517WAT    EPW 2132   1.959   3.759   0.084 -0.2104  0.0729 -0.0942
  518WAT      O 2133   2.292   1.596   3.073 -0.0412 -0.0562 -0.4227
  518WAT     H1 2134   2.331   1.574   3.157 -0.8054  2.1129  0.5546
  518WAT     H2 2135   2.319   1.686   3.056  0.7521 -0.6670 -2.9293
  518WAT    EPW 2136   2.301   1.605   3.082 -0.0374  0.1493 -0.6244
  519WAT      O 2137   0.970   3.906   3.583  0.0905 -0.1820 -0.2453
  519WAT     H1 2138   0.998   3.973   3.520  0.5420  1.6772  1.7942
  519WAT     H2 2139   1.048   3.890   3.636 -0.2213 -1.8376 -0.2409
  519WAT    EPW 2140   0.984   3.913   3.581  0.1089 -0.1551  0.0242
  520WAT      O 2141   1.742   2.236   1.119  0.1852  0.3397  0.0674
  520WAT     H1 2142   1.676   2.215   1.185 -1.8775 -0.5298 -2.1260
  520WAT     H2 2143   1.738   2.163   1.057  3.5839  0.0381  0.0184
  520WAT    EPW 2144   1.732   2.224   1.120  0.3614  0.1852 -0.2283
  521WAT      O 2145   1.379   2.135   1.127  0.3516 -0.0899  0.0164
  521WAT     H1 2146   1.418   2.215   1.163  0.7848 -0.5668  0.6285
  521WAT     H2 2147   1.450   2.096   1.075  0.5133 -0.6591  0.6568
  521WAT    EPW 2148   1.394   2.140   1.125  0.4301 -0.2279  0.1816
  522WAT      O 2149   3.277   0.562   3.905  0.0623  0.7545 -0.1170
  522WAT     H1 2150   3.277   0.473   3.939  1.0159  1.1994  1.1184
  522WAT     H2 2151   3.304   0.617   3.979  0.3416  1.9797 -1.0762
  522WAT    EPW 2152   3.280   0.558   3.919  0.2249  0.9748 -0.0806
  523WAT      O 2153   0.155   0.825   1.063 -0.5423 -0.4138  0.0970
  523WAT     H1 2154   0.117   0.788   0.983  1.7554 -2.5778 -0.1229
  523WAT     H2 2155   0.206   0.900   1.033 -0.2844 -0.7708 -0.3614
  523WAT    EPW 2156   0.157   0.830   1.049 -0.2052 -0.7463  0.0075
  524WAT      O 2157   3.669   0.287   1.294 -0.0352  0.1686 -0.0014
  524WAT     H1 2158   3.708   0.368   1.260  0.6945 -0.1984 -0.0674
  524WAT     H2 2159   3.736   0.251   1.352 -0.5358 -0.1599  0.3778
  524WAT    EPW 2160   3.683   0.293   1.297 -0.0050  0.0769  0.0399
  525WAT      O 2161   1.039   1.953   3.122  0.2865  0.0745 -0.4060
  525WAT     H1 2162   0.944   1.946   3.131  0.3288  0.4542  0.4441
  525WAT     H2 2163   1.074   1.886   3.181  0.5510  0.0744 -0.5620
  525WAT    EPW 2164   1.031   1.943   3.131  0.3270  0.1246 -0.3145
  526WAT      O 2165   2.397   3.945   0.451  0.4663  0.0117 -0.3326
  526WAT     H1 2166   2.486   3.935   0.484  0.8919  2.0542 -0.7057
  526WAT     H2 2167   2.399   3.905   0.364  1.4542  1.2864 -0.9281
  526WAT    EPW 2168   2.409   3.939   0.444  0.6527  0.4492 -0.4604
  527WAT      O 2169   3.696   2.720   2.751 -0.2581  0.1225 -0.5769
  527WAT     H1 2170   3.607   2.700   2.780  0.4971  0.9036  2.7807
  527WAT     H2 2171   3.751   2.656   2.797  0.9588 -0.5350 -2.8034
  527WAT    EPW 2172   3.692   2.709   2.761  0.0020  0.1388 -0.4277
  528WAT      O 2173   3.630   1.371   0.671 -0.4456 -0.4565 -0.4185
  528WAT     H1 2174   3.684   1.430   0.618  1.0626 -1.7282 -0.3601
  528WAT     H2 2175   3.644   1.400   0.761 -1.1279  0.2145 -0.5256
  528WAT    EPW 2176   3.639   1.383   0.676 -0.3367 -0.5357 -0.4249
  529WAT      O 2177   3.136   0.284   3.422  0.6885 -0.3270 -0.1479
  529WAT     H1 2178   3.224   0.289   3.385  1.3266  0.2308  1.3627
  529WAT     H2 2179   3.080   0.323   3.355  1.6532 -0.3095 -0.9616
  529WAT    EPW 2180   3.140   0.290   3.408  0.8999 -0.2511 -0.0560
  530WAT      O 2181   2.553   1.390   1.623 -0.2742 -0.4915  0.1866
  530WAT     H1 2182   2.543   1.357   1.712 -0.0507  0.1215  0.4383
  530WAT     H2 2183   2.590   1.477   1.633 -2.3191  0.5079 -0.3934
  530WAT    EPW 2184   2.556   1.397   1.636 -0.5144 -0.2789  0.1433
  531WAT      O 2185   0.763   0.966   2.616  0.2966  0.7209  0.1020
  531WAT     H1 2186   0.688   0.909   2.629 -1.9919  3.1930 -1.2732
  531WAT     H2 2187   0.733   1.052   2.643  3.6540  1.4157  2.2836
  531WAT    EPW 2188   0.749   0.970   2.621  0.4376  1.1386  0.2084
  532WAT      O 2189   1.733   4.138   0.426 -0.3121  0.1805 -0.2949
  532WAT     H1 2190   1.677   4.140   0.504  1.1524 -1.4459  0.8630
  532WAT     H2 2191   1.734   4.046   0.399 -0.3999  0.6311 -1.9915
  532WAT    EPW 2192   1.725   4.126   0.432 -0.1305  0.0254 -0.3659
  533WAT      O 2193   0.838   1.303   2.897  0.3670 -0.6008  0.1511
  533WAT     H1 2194   0.823   1.360   2.973 -0.6499 -0.7636  0.0839
  533WAT     H2 2195   0.847   1.363   2.823  1.8843 -0.4119  0.4559
  533WAT    EPW 2196   0.837   1.318   2.897  0.4330 -0.5973  0.1825
  534WAT      O 2197   1.253   2.264   0.202  0.0218  0.3221 -0.7168
  534WAT     H1 2198   1.271   2.339   0.258 -0.7551  1.9728 -2.5463
  534WAT     H2 2199   1.232   2.193   0.263 -2.1834  2.3657  1.1271
  534WAT    EPW 2200   1.252   2.265   0.217 -0.3716  0.8094 -0.7149
  535WAT      O 2201   1.969   1.098   3.367 -0.0171 -0.1525 -0.2100
  535WAT     H1 2202   2.050   1.059   3.335 -0.4638 -0.5606 -0.8895
  535WAT     H2 2203   1.916   1.111   3.288  0.3531  2.4583 -0.0968
  535WAT    EPW 2204   1.973   1.095   3.352 -0.0272  0.1380 -0.2847
  536WAT      O 2205   2.829   0.413   0.379  0.3048  0.0915 -0.2613
  536WAT     H1 2206   2.912   0.458   0.390  0.0997  0.8636 -1.6107
  536WAT     H2 2207   2.852   0.322   0.364  0.8001 -0.0149  1.0151
  536WAT    EPW 2208   2.843   0.407   0.379  0.3431  0.1793 -0.2709
  537WAT      O 2209   2.370   2.399   3.564 -0.0291  0.0737  0.3279
  537WAT     H1 2210   2.321   2.382   3.483 -0.9340  0.5470  0.7545
  537WAT     H2 2211   2.436   2.329   3.567 -1.1481 -1.0337  0.1002
  537WAT    EPW 2212   2.372   2.387   3.553 -0.2961 -0.0099  0.3541
  538WAT      O 2213   3.222   0.508   3.562  0.3691  0.6375  0.2552
  538WAT     H1 2214   3.315   0.497   3.581  0.1348 -0.2992  0.9217
  538WAT     H2 2215   3.195   0.425   3.524 -0.5467  0.2979  1.5659
  538WAT    EPW 2216   3.231   0.496   3.560  0.2174  0.4692  0.5160
  539WAT      O 2217   0.965   3.212   1.821  0.0830  0.9593  0.0178
  539WAT     H1 2218   0.948   3.201   1.915  0.3606 -0.9993 -0.1187
  539WAT     H2 2219   0.879   3.202   1.780  0.2338 -0.2755 -0.0500
  539WAT    EPW 2220   0.951   3.209   1.828  0.1395  0.5381 -0.0091
  540WAT      O 2221   3.096   3.301   0.662  0.3640 -0.4815 -0.1367
  540WAT     H1 2222   3.157   3.312   0.588 -0.4251 -1.3371 -0.9452
  540WAT     H2 2223   3.020   3.259   0.623 -0.1984 -0.6600  1.1299
  540WAT    EPW 2224   3.094   3.297   0.647  0.1857 -0.6179 -0.0763
  541WAT      O 2225   3.603   0.346   3.910  0.2279  0.6041  0.1848
  541WAT     H1 2226   3.609   0.383   3.998  0.7787  1.2139 -0.1063
  541WAT     H2 2227   3.611   0.251   3.924  0.6201  0.7162  0.7634
  541WAT    EPW 2228   3.605   0.338   3.923  0.3523  0.6993  0.2227
  542WAT      O 2229   0.617   3.414   0.696  0.0950  0.0206  0.6208
  542WAT     H1 2230   0.546   3.383   0.640 -0.9916 -0.3260  2.1441
  542WAT     H2 2231   0.688   3.353   0.679 -0.5449 -0.6656  0.3447
  542WAT    EPW 2232   0.617   3.402   0.686 -0.1327 -0.1157  0.7853
  543WAT      O 2233   2.922   2.459   0.072 -0.3389  0.4872  0.2565
  543WAT     H1 2234   2.949   2.437  -0.017  0.0338  0.5474  0.3529
  543WAT     H2 2235   2.842   2.409   0.086  0.2380 -0.4420  0.3004
  543WAT    EPW 2236   2.915   2.450   0.062 -0.2137  0.3726  0.2750
  544WAT      O 2237   2.904   0.639   3.612 -0.1689 -0.1297  0.0936
  544WAT     H1 2238   2.832   0.625   3.674  0.5322  0.1169  0.9786
  544WAT     H2 2239   2.914   0.734   3.607 -0.3768 -0.1407 -0.5886
  544WAT    EPW 2240   2.896   0.649   3.620 -0.1038 -0.0986  0.1204
  545WAT      O 2241   2.345   1.327   2.100  0.0141 -0.2679  0.0459
  545WAT     H1 2242   2.341   1.271   2.177  1.0501  0.5659  0.7190
  545WAT     H2 2243   2.326   1.415   2.132  2.4050  0.4219 -0.2553
  545WAT    EPW 2244   2.342   1.331   2.114  0.4661 -0.0670  0.0950
  546WAT      O 2245   3.291   2.616   2.988 -0.0426 -0.0777 -0.8085
  546WAT     H1 2246   3.234   2.646   3.059  1.4889 -0.3057  0.5711
  546WAT     H2 2247   3.329   2.696   2.953 -0.4525  0.0016 -1.0793
  546WAT    EPW 2248   3.288   2.631   2.993  0.1053 -0.0973 -0.6622
  547WAT      O 2249   1.866   0.984   0.075 -0.2014  0.2168 -0.4046
  547WAT     H1 2250   1.816   1.064   0.058  0.1795  0.6992  0.6599
  547WAT     H2 2251   1.957   1.011   0.066 -0.0870 -0.3002 -0.8392
  547WAT    EPW 2252   1.871   0.998   0.071 -0.1361  0.2122 -0.3215
  548WAT      O 2253   2.967   4.166   3.062  0.3796 -0.3819  0.4692
  548WAT     H1 2254   3.007   4.080   3.046  0.3220 -0.4147  0.4988
  548WAT     H2 2255   2.997   4.190   3.149 -1.9136 -1.6920  1.7317
  548WAT    EPW 2256   2.976   4.158   3.071  0.0695 -0.5590  0.6396
  549WAT      O 2257   3.336   0.819   2.025  0.1886  0.2361  0.1153
  549WAT     H1 2258   3.405   0.771   1.979 -1.6386 -1.8916 -0.5158
  549WAT     H2 2259   3.343   0.908   1.990 -0.3446 -0.9707 -3.5234
  549WAT    EPW 2260   3.346   0.825   2.014 -0.1227 -0.2037 -0.4478
  550WAT      O 2261   0.389   4.158   2.093 -0.3359  0.2922 -0.3399
  550WAT     H1 2262   0.383   4.254   2.094 -0.0007  0.3204  0.6527
  550WAT     H2 2263   0.385   4.134   2.000 -1.2406  1.2061 -0.5521
  550WAT    EPW 2264   0.388   4.168   2.081 -0.4110  0.4164 -0.2370
  551WAT      O 2265   1.915   2.831   1.123  0.0187  0.2199  0.3408
  551WAT     H1 2266   1.968   2.759   1.090  1.4628  1.7456 -0.8526
  551WAT     H2 2267   1.829   2.817   1.082  0.0818 -1.1351  0.6222
  551WAT    EPW 2268   1.911   2.820   1.113  0.2175  0.2424  0.2205
  552WAT      O 2269   0.488   0.687   3.937 -0.0695  0.0336  0.1031
  552WAT     H1 2270   0.437   0.661   4.014 -0.3934 -1.4903 -0.5827
  552WAT     H2 2271   0.443   0.645   3.863 -0.1425  1.9701 -1.0229
  552WAT    EPW 2272   0.476   0.678   3.937 -0.1218  0.0880 -0.1359
  553WAT      O 2273   2.043   3.171   2.441 -0.0948 -0.4250 -0.2893
  553WAT     H1 2274   2.125   3.134   2.474  0.4310  0.4677 -0.5519
  553WAT     H2 2275   2.070   3.247   2.390 -1.0922 -0.0808 -0.3317
  553WAT    EPW 2276   2.057   3.176   2.439 -0.1570 -0.2619 -0.3295
  554WAT      O 2277   2.004   0.110   3.622  1.0362 -0.0181  0.7627
  554WAT     H1 2278   1.983   0.085   3.532  1.9957 -0.2838  0.6091
  554WAT     H2 2279   1.929   0.079   3.673 -0.2589  1.4855 -0.1270
  554WAT    EPW 2280   1.991   0.102   3.616  0.9919  0.1452  0.6251
  555WAT      O 2281   1.614   3.098   4.006  0.1494 -0.2020 -0.2767
  555WAT     H1 2282   1.541   3.073   3.950  0.4607  0.7723 -1.1438
  555WAT     H2 2283   1.587   3.071   4.094 -1.7653  1.1582 -0.3934
  555WAT    EPW 2284   1.601   3.091   4.010 -0.0621  0.1059 -0.4064
  556WAT      O 2285   0.062   0.673   3.046 -0.4833  0.2736 -0.2452
  556WAT     H1 2286   0.006   0.650   3.121 -1.0840  2.6652  0.1170
  556WAT     H2 2287   0.138   0.715   3.085 -1.4696  2.8792 -0.9425
  556WAT    EPW 2288   0.065   0.675   3.061 -0.6926  0.9327 -0.2894
  557WAT      O 2289   2.552   3.176   2.698  0.6597  1.0190 -0.2758
  557WAT     H1 2290   2.552   3.217   2.612  0.1336 -1.0899 -1.3425
  557WAT     H2 2291   2.465   3.193   2.733  0.2464  0.3508 -0.9559
  557WAT    EPW 2292   2.541   3.184   2.691  0.5358  0.6527 -0.5062
  558WAT      O 2293   2.793   0.614   3.352  0.0777 -0.5737 -0.3233
  558WAT     H1 2294   2.816   0.701   3.319 -2.1571  0.1139 -0.1745
  558WAT     H2 2295   2.833   0.610   3.439 -0.7771  0.8054  0.1637
  558WAT    EPW 2296   2.802   0.625   3.359 -0.3298 -0.3011 -0.2394
  559WAT      O 2297   1.975   2.561   3.499  0.4123  0.1336 -0.1848
  559WAT     H1 2298   2.003   2.561   3.590  0.1556  0.3045 -0.1054
  559WAT     H2 2299   1.895   2.614   3.498  0.4915  0.2491 -0.5309
  559WAT    EPW 2300   1.968   2.568   3.511  0.3889  0.1714 -0.2200
  560WAT      O 2301   2.157   0.782   1.496 -0.0583  0.0189 -0.2381
  560WAT     H1 2302   2.066   0.799   1.474  0.1200  0.2721 -0.7945
  560WAT     H2 2303   2.183   0.711   1.438  0.0394 -0.1958  0.0653
  560WAT    EPW 2304   2.149   0.775   1.486 -0.0219  0.0240 -0.2714
  561WAT      O 2305   2.521   2.134   1.130 -0.1226  0.1141  0.2594
  561WAT     H1 2306   2.460   2.200   1.097  2.3706  2.3758 -0.2342
  561WAT     H2 2307   2.538   2.160   1.220  0.7637  0.1116  0.1078
  561WAT    EPW 2308   2.515   2.147   1.137  0.3232  0.4121  0.1743
  562WAT      O 2309   3.299   3.304   0.462 -0.3504  0.5539 -0.2524
  562WAT     H1 2310   3.380   3.279   0.507  0.4590  0.8203 -1.5290
  562WAT     H2 2311   3.272   3.225   0.416 -0.0096  0.8671 -1.0025
  562WAT    EPW 2312   3.306   3.290   0.462 -0.1987  0.6303 -0.5197
  563WAT      O 2313   2.341   2.586   3.144  0.0927  0.0202 -0.2641
  563WAT     H1 2314   2.308   2.668   3.181  0.4894 -0.3472  0.9382
  563WAT     H2 2315   2.436   2.593   3.150  0.1870  0.0948 -1.5604
  563WAT    EPW 2316   2.349   2.598   3.149  0.1574 -0.0184 -0.2765
  564WAT      O 2317   1.355   1.845   3.965  0.2321  0.1012 -0.0746
  564WAT     H1 2318   1.357   1.816   4.056  1.0277  0.2562 -0.0316
  564WAT     H2 2319   1.263   1.839   3.939 -0.2512  1.4485  1.1988
  564WAT    EPW 2320   1.343   1.841   3.973  0.2733  0.2994  0.0990
  565WAT      O 2321   1.901   0.527   1.414 -0.2057 -0.3913 -0.1790
  565WAT     H1 2322   1.937   0.495   1.497 -0.2520  0.0184  0.0013
  565WAT     H2 2323   1.977   0.533   1.355 -0.0338  0.1081  0.0862
  565WAT    EPW 2324   1.916   0.524   1.417 -0.1891 -0.2714 -0.1202
  566WAT      O 2325   1.784   3.504   2.450  0.1020  0.2413 -0.4065
  566WAT     H1 2326   1.756   3.573   2.390  0.3521  1.6259  1.0047
  566WAT     H2 2327   1.704   3.456   2.470 -0.5194  1.4702  0.2255
  566WAT    EPW 2328   1.770   3.507   2.445  0.0531  0.5860 -0.1370
  567WAT      O 2329   2.533   0.165   2.865  0.4932  0.4439 -0.1432
  567WAT     H1 2330   2.495   0.132   2.784  0.8930 -0.5745  0.0665
  567WAT     H2 2331   2.572   0.249   2.841 -0.9691  1.0273 -0.5815
  567WAT    EPW 2332   2.533   0.172   2.851  0.3531  0.3866 -0.1733
  568WAT      O 2333   0.978   2.582   0.757 -0.2072 -0.2674 -0.6029
  568WAT     H1 2334   0.909   2.522   0.729 -0.1028 -0.4504 -0.4736
  568WAT     H2 2335   0.931   2.663   0.780 -0.4842 -0.6793  0.3280
  568WAT    EPW 2336   0.963   2.585   0.757 -0.2299 -0.3459 -0.4630
  569WAT      O 2337   3.323   0.723   1.600  0.3172  0.6514  0.1789
  569WAT     H1 2338   3.311   0.636   1.638  0.6644  1.1042  1.3613
  569WAT     H2 2339   3.409   0.751   1.630  1.6740  0.1176 -2.8367
  569WAT    EPW 2340   3.333   0.715   1.609  0.5420  0.6407 -0.0629
  570WAT      O 2341   3.579   1.813   3.593  0.2016  0.2154 -0.3783
  570WAT     H1 2342   3.645   1.751   3.623 -1.8400 -2.3246 -0.8057
  570WAT     H2 2343   3.610   1.842   3.508  0.9644 -0.6393 -0.4096
  570WAT    EPW 2344   3.591   1.809   3.586  0.0329 -0.2323 -0.4388
  571WAT      O 2345   0.960   0.649   3.989 -0.1874 -0.1888  0.4328
  571WAT     H1 2346   0.886   0.666   3.930  0.5612  0.6878 -0.2702
  571WAT     H2 2347   0.963   0.725   4.047 -0.1595 -0.4764  0.8130
  571WAT    EPW 2348   0.950   0.661   3.989 -0.0850 -0.1111  0.3902
  572WAT      O 2349   0.953   1.478   3.431 -0.4128 -0.0357  0.1716
  572WAT     H1 2350   1.027   1.490   3.371  0.5659 -1.2915  1.0803
  572WAT     H2 2351   0.986   1.505   3.516 -0.1078 -2.9353  1.0844
  572WAT    EPW 2352   0.967   1.483   3.434 -0.2435 -0.5838  0.4118
  573WAT      O 2353   0.631   4.141   3.553 -0.3559  0.0531  0.3608
  573WAT     H1 2354   0.670   4.123   3.639  0.2939 -0.2009  0.0155
  573WAT     H2 2355   0.702   4.180   3.502  0.0214 -2.0425 -0.8472
  573WAT    EPW 2356   0.646   4.144   3.558 -0.2204 -0.2568  0.1560
  574WAT      O 2357   1.226   2.137   2.444  0.3378  0.7089 -0.0273
  574WAT     H1 2358   1.222   2.180   2.358 -0.2032  0.0864 -0.3233
  574WAT     H2 2359   1.316   2.148   2.472  1.0906 -0.8928 -1.6251
  574WAT    EPW 2360   1.237   2.144   2.436  0.3657  0.4156 -0.2771
  575WAT      O 2361   2.344   2.031   0.753  0.4150 -0.6558 -0.3286
  575WAT     H1 2362   2.328   1.939   0.778 -0.1783 -0.2765  0.7523
  575WAT     H2 2363   2.419   2.027   0.694  1.6684 -1.6650  1.2498
  575WAT    EPW 2364   2.352   2.018   0.749  0.5021 -0.7389  0.0222
  576WAT      O 2365   1.742   0.378   1.671  0.1421  0.5222  0.2756
  576WAT     H1 2366   1.836   0.393   1.677  0.3099  0.1838 -1.2034
  576WAT     H2 2367   1.707   0.409   1.755  1.5831  0.4640  0.9146
  576WAT    EPW 2368   1.750   0.384   1.683  0.3543  0.4699  0.1648
  577WAT      O 2369   2.665   1.993   2.882 -0.9475  0.2540  0.1938
  577WAT     H1 2370   2.650   1.902   2.910 -1.0058  0.5803  1.2731
  577WAT     H2 2371   2.759   2.006   2.892 -1.0421  0.5346  0.7636
  577WAT    EPW 2372   2.675   1.983   2.887 -0.9677  0.3341  0.4113
  578WAT      O 2373   0.617   3.918   3.946 -0.5164  0.3689  0.2874
  578WAT     H1 2374   0.649   4.002   3.914 -0.3101  0.0509 -0.3546
  578WAT     H2 2375   0.526   3.914   3.919 -0.2587 -0.0323 -0.5460
  578WAT    EPW 2376   0.609   3.928   3.939 -0.4552  0.2740  0.0928
  579WAT      O 2377   2.479   2.109   3.549 -0.0064  0.2628  0.2078
  579WAT     H1 2378   2.551   2.122   3.487  0.2271  0.0809  0.4401
  579WAT     H2 2379   2.486   2.018   3.576 -0.1515  0.3228  0.4503
  579WAT    EPW 2380   2.489   2.099   3.544  0.0053  0.2467  0.2704
  580WAT      O 2381   0.741   0.994   0.969 -0.0257 -0.0892 -0.0114
  580WAT     H1 2382   0.717   1.063   1.030 -1.0643  1.7793 -2.3834
  580WAT     H2 2383   0.667   0.934   0.970 -0.3019  0.2499  0.1463
  580WAT    EPW 2384   0.728   0.995   0.977 -0.1991  0.2020 -0.3035
  581WAT      O 2385   0.208   3.024   0.094  0.1786 -0.1902 -0.6015
  581WAT     H1 2386   0.204   2.983   0.007 -0.3971  0.0862 -0.7092
  581WAT     H2 2387   0.300   3.017   0.119  0.3583 -0.2348 -1.2541
  581WAT    EPW 2388   0.220   3.018   0.086  0.1264 -0.1597 -0.7018
  582WAT      O 2389   0.252   3.144   1.258 -0.0572 -0.2841  0.4776
  582WAT     H1 2390   0.258   3.160   1.353 -1.0122  0.9532  0.3548
  582WAT     H2 2391   0.342   3.122   1.232  0.4645  0.5739  1.4623
  582WAT    EPW 2392   0.265   3.143   1.267 -0.1143 -0.0078  0.5913
  583WAT      O 2393   2.085   0.199   0.993 -0.0839  0.0949 -0.1474
  583WAT     H1 2394   2.159   0.141   1.015  0.0965  0.9633  1.8034
  583WAT     H2 2395   2.107   0.233   0.906  1.2141 -0.5864 -0.1249
  583WAT    EPW 2396   2.098   0.196   0.985  0.1111  0.1196  0.1129
  584WAT      O 2397   0.376   3.260   1.505  0.1065 -0.0360  0.4916
  584WAT     H1 2398   0.355   3.353   1.497  1.1311  0.0797 -1.4656
  584WAT     H2 2399   0.470   3.255   1.486  0.0124 -1.4930  0.3065
  584WAT    EPW 2400   0.386   3.272   1.501  0.2293 -0.2129  0.2091
  585WAT      O 2401   2.885   3.888   0.777 -0.4352 -0.0536 -0.6405
  585WAT     H1 2402   2.839   3.867   0.859  0.4683  0.8666  0.1224
  585WAT     H2 2403   2.819   3.934   0.725 -1.1386 -0.9887 -0.6175
  585WAT    EPW 2404   2.870   3.891   0.781 -0.4088 -0.0555 -0.5369
  586WAT      O 2405   3.390   0.251   2.158 -0.6274  0.0110 -0.5108
  586WAT     H1 2406   3.400   0.342   2.131 -1.2870  0.8252  1.7428
  586WAT     H2 2407   3.478   0.225   2.188 -0.1491 -0.5486 -2.2676
  586WAT    EPW 2408   3.403   0.260   2.159 -0.6513  0.0446 -0.4453
  587WAT      O 2409   2.438   0.993   1.857 -0.1375  0.6361 -0.0764
  587WAT     H1 2410   2.497   0.918   1.849 -0.6239  0.1629  0.6470
  587WAT     H2 2411   2.386   0.991   1.776  0.1404  0.4492 -0.2523
  587WAT    EPW 2412   2.439   0.983   1.845 -0.1650  0.5490 -0.0042
  588WAT      O 2413   2.398   1.140   1.360  0.1295 -0.5194  0.1249
  588WAT     H1 2414   2.309   1.108   1.379 -0.3317 -0.9018 -2.3318
  588WAT     H2 2415   2.388   1.235   1.353  0.1201 -0.4691  0.7455
  588WAT    EPW 2416   2.385   1.149   1.361  0.0674 -0.5632 -0.1173
  589WAT      O 2417   3.606   3.026   1.225 -0.0451  0.3448  0.1206
  589WAT     H1 2418   3.669   2.971   1.178 -1.7214 -1.9426  0.3560
  589WAT     H2 2419   3.521   2.992   1.198 -1.1227  1.3044  2.0986
  589WAT    EPW 2420   3.603   3.014   1.215 -0.4083  0.1697  0.4126
  590WAT      O 2421   2.467   2.876   2.620 -0.0659  0.4577 -0.0268
  590WAT     H1 2422   2.497   2.966   2.628  1.1157  0.3327 -2.1985
  590WAT     H2 2423   2.481   2.838   2.706  0.7769  1.9670  0.5360
  590WAT    EPW 2424   2.473   2.883   2.632  0.2011  0.6403 -0.2390
  591WAT      O 2425   0.772   2.411   0.711  0.0569 -0.1647  0.0918
  591WAT     H1 2426   0.758   2.334   0.766 -1.1872  0.3879  0.6093
  591WAT     H2 2427   0.683   2.439   0.687  0.4944  0.9224 -0.3198
  591WAT    EPW 2428   0.758   2.405   0.715 -0.0495  0.0516  0.1058
  592WAT      O 2429   3.076   0.603   0.436  0.4274 -0.5461 -0.3784
  592WAT     H1 2430   3.131   0.681   0.434  0.7011 -0.7558 -1.2148
  592WAT     H2 2431   3.009   0.623   0.501  0.4924  0.3900 -0.5910
  592WAT    EPW 2432   3.074   0.616   0.445  0.4720 -0.4503 -0.5168
  593WAT      O 2433   0.832   0.347   3.574  0.1478  0.1980 -0.1733
  593WAT     H1 2434   0.897   0.345   3.504 -0.2088 -0.9291 -0.4987
  593WAT     H2 2435   0.748   0.356   3.528 -0.0155  0.4898  0.1776
  593WAT    EPW 2436   0.830   0.348   3.559  0.0792  0.0878 -0.1699
  594WAT      O 2437   1.507   2.312   3.981 -0.0827 -0.4839  0.2012
  594WAT     H1 2438   1.457   2.292   4.060 -1.1295  0.0886 -0.2957
  594WAT     H2 2439   1.494   2.406   3.968 -1.1301 -0.8229 -1.4467
  594WAT    EPW 2440   1.498   2.322   3.990 -0.3589 -0.4531 -0.0817
  595WAT      O 2441   0.001   1.030   2.976 -0.1497 -0.1669 -0.0732
  595WAT     H1 2442   0.006   1.020   3.071 -0.2665 -1.1410 -0.1529
  595WAT     H2 2443  -0.051   1.109   2.963  0.5826  0.4572  0.6695
  595WAT    EPW 2444  -0.006   1.039   2.987 -0.0685 -0.2131  0.0143
  596WAT      O 2445   3.122   3.146   2.019 -0.0915 -0.7201  0.1074
  596WAT     H1 2446   3.181   3.082   2.059  1.3155  1.8018  2.3811
  596WAT     H2 2447   3.180   3.204   1.970 -1.2587 -0.7291 -1.3701
  596WAT    EPW 2448   3.138   3.145   2.018 -0.0599 -0.3887  0.2124
  597WAT      O 2449   2.188   2.428   3.325 -0.5972  0.0264  0.1044
  597WAT     H1 2450   2.108   2.469   3.357 -0.4850  0.9153 -0.7051
  597WAT     H2 2451   2.236   2.499   3.283  0.2465 -0.6623 -0.1283
  597WAT    EPW 2452   2.184   2.442   3.324 -0.4711  0.0528 -0.0331
  598WAT      O 2453   0.268   3.410   0.689  0.7098  0.1105 -0.2039
  598WAT     H1 2454   0.274   3.480   0.624  2.9896  1.6829  1.5475
  598WAT     H2 2455   0.311   3.335   0.648  2.5866  1.2275 -0.3628
  598WAT    EPW 2456   0.274   3.410   0.675  1.2580  0.4652  0.0061
  599WAT      O 2457   0.183   2.694   2.395  0.1649 -0.5175  0.4574
  599WAT     H1 2458   0.235   2.726   2.321  2.4193 -1.2731  1.6048
  599WAT     H2 2459   0.160   2.773   2.444 -0.4132 -0.1066 -0.4613
  599WAT    EPW 2460   0.187   2.709   2.392  0.3860 -0.5630  0.4876
  600WAT      O 2461   1.397   1.587   2.163  0.0296  0.1160  0.4244
  600WAT     H1 2462   1.334   1.525   2.127  0.3757  0.1328 -0.2309
  600WAT     H2 2463   1.353   1.672   2.159  0.9158  0.5515 -2.3217
  600WAT    EPW 2464   1.383   1.590   2.158  0.1921  0.1757 -0.0242
  601WAT      O 2465   1.895   0.245   2.665 -0.2859  0.2793 -0.4038
  601WAT     H1 2466   1.951   0.310   2.622 -0.8637  0.8823 -0.2655
  601WAT     H2 2467   1.953   0.173   2.686  0.9627  1.8072  1.8203
  601WAT    EPW 2468   1.910   0.244   2.662 -0.1974  0.5603 -0.0922
  602WAT      O 2469   1.597   0.639   1.303 -0.4257 -0.1749  0.3434
  602WAT     H1 2470   1.659   0.662   1.233  0.8054  1.6788  1.9309
  602WAT     H2 2471   1.522   0.602   1.258  1.8124 -2.6473 -1.7223
  602WAT    EPW 2472   1.596   0.637   1.288  0.0318 -0.2565  0.2803
  603WAT      O 2473   0.956   4.012   0.645 -0.2149 -0.0661  0.5575
  603WAT     H1 2474   0.866   4.017   0.677 -0.7972 -1.0424 -0.8150
  603WAT     H2 2475   1.010   4.016   0.724 -1.5019 -0.5857  1.5028
  603WAT    EPW 2476   0.951   4.013   0.660 -0.4614 -0.2634  0.5012
  604WAT      O 2477   2.384   1.374   2.863 -0.1479  0.5073  0.6944
  604WAT     H1 2478   2.418   1.424   2.937 -2.0673  1.7283  0.8465
  604WAT     H2 2479   2.297   1.412   2.847  0.7435  1.3336 -3.1484
  604WAT    EPW 2480   2.377   1.386   2.871 -0.2835  0.7773  0.2076
  605WAT      O 2481   2.076   0.561   3.444 -0.1261 -0.1703 -0.9834
  605WAT     H1 2482   2.025   0.639   3.423  0.9101  0.2554 -2.0272
  605WAT     H2 2483   2.168   0.589   3.435  0.5218 -0.0993  3.4940
  605WAT    EPW 2484   2.082   0.575   3.440  0.0960 -0.1048 -0.5305
  606WAT      O 2485   3.599   1.268   3.328 -0.0010  0.1555  0.3691
  606WAT     H1 2486   3.687   1.284   3.362  0.6777 -2.1958 -0.0997
  606WAT     H2 2487   3.560   1.206   3.390 -0.8823  0.1972 -0.1209
  606WAT    EPW 2488   3.605   1.262   3.341 -0.0277 -0.1491  0.2427
  607WAT      O 2489   3.671   3.748   0.417 -0.0034  0.4495 -0.4040
  607WAT     H1 2490   3.669   3.665   0.463  0.8739  0.8749  0.4543
  607WAT     H2 2491   3.585   3.787   0.433  0.1511  0.4171  0.5794
  607WAT    EPW 2492   3.660   3.742   0.426  0.1327  0.5013 -0.1611
  608WAT      O 2493   1.826   2.019   3.688 -0.2278  0.3668  0.2764
  608WAT     H1 2494   1.825   2.032   3.783 -1.2773  1.9805  0.0694
  608WAT     H2 2495   1.915   2.041   3.662  0.1502 -0.3607  0.9039
  608WAT    EPW 2496   1.838   2.023   3.697 -0.3163  0.4837  0.3318
  609WAT      O 2497   1.046   2.306   3.115 -0.1046 -0.5398  0.4840
  609WAT     H1 2498   1.003   2.261   3.188 -0.7954 -1.2825 -0.3698
  609WAT     H2 2499   1.028   2.252   3.039 -1.3500  1.3808 -0.6660
  609WAT    EPW 2500   1.038   2.293   3.115 -0.3600 -0.3845  0.2197
  610WAT      O 2501   0.132   3.131   0.905 -0.4995 -0.0123 -0.2565
  610WAT     H1 2502   0.208   3.100   0.857  0.0215  1.6743 -0.5938
  610WAT     H2 2503   0.161   3.133   0.997  0.5927  2.3774 -0.5583
  610WAT    EPW 2504   0.146   3.127   0.911 -0.2867  0.5253 -0.3408
  611WAT      O 2505   0.839   2.141   1.640 -0.3749  0.5224 -0.4096
  611WAT     H1 2506   0.905   2.072   1.641 -0.8616  0.0505 -0.2635
  611WAT     H2 2507   0.826   2.162   1.548  1.2820  1.9047 -0.3818
  611WAT    EPW 2508   0.846   2.135   1.628 -0.2206  0.6425 -0.3866
  612WAT      O 2509   2.677   1.131   1.219 -0.4729 -0.0290  0.4330
  612WAT     H1 2510   2.587   1.150   1.247 -0.7437  0.9910 -1.0074
  612WAT     H2 2511   2.680   1.035   1.210 -1.6507 -0.0205 -0.2087
  612WAT    EPW 2512   2.665   1.121   1.221 -0.6640  0.1067  0.1584
  613WAT      O 2513   2.986   2.211   2.622 -0.2545  0.3043  0.3811
  613WAT     H1 2514   3.038   2.130   2.627 -0.4235  0.2117  0.7123
  613WAT     H2 2515   2.909   2.187   2.571 -1.6242 -0.5052  2.6406
  613WAT    EPW 2516   2.983   2.197   2.616 -0.4574  0.1853  0.7228
  614WAT      O 2517   0.065   2.132   3.509  0.3897  0.4177  0.2929
  614WAT     H1 2518   0.079   2.140   3.603  0.0395  0.5498  0.3367
  614WAT     H2 2519   0.016   2.211   3.485  2.0526  1.3000 -0.3328
  614WAT    EPW 2520   0.060   2.143   3.518  0.5629  0.5515  0.2161
  615WAT      O 2521   2.986   0.420   1.231  0.1740  0.2151 -0.5376
  615WAT     H1 2522   3.060   0.434   1.289  0.2788  1.0691 -0.8637
  615WAT     H2 2523   2.999   0.331   1.197 -0.0962 -0.4446  1.0099
  615WAT    EPW 2524   2.997   0.410   1.234  0.1522  0.2407 -0.3765
  616WAT      O 2525   2.752   3.812   1.860  0.3379 -0.2918  0.3683
  616WAT     H1 2526   2.796   3.833   1.943  1.8282 -0.5674 -0.3066
  616WAT     H2 2527   2.714   3.895   1.832  0.4377 -0.0287  0.9804
  616WAT    EPW 2528   2.753   3.826   1.867  0.5476 -0.2935  0.3600
  617WAT      O 2529   2.522   1.266   0.311 -0.2265  0.3156  0.2731
  617WAT     H1 2530   2.558   1.261   0.222  0.1449 -0.6673  0.4610
  617WAT     H2 2531   2.475   1.350   0.314 -1.0422 -0.0688 -1.1379
  617WAT    EPW 2532   2.521   1.277   0.300 -0.2851  0.1353  0.1118
  618WAT      O 2533   0.073   3.807   0.153  0.1290  0.4010  0.0987
  618WAT     H1 2534   0.034   3.773   0.234 -0.8467  1.4591  0.0949
  618WAT     H2 2535   0.131   3.737   0.123 -3.3684 -2.2094 -1.0748
  618WAT    EPW 2536   0.076   3.794   0.160 -0.4610  0.1963 -0.0566
  619WAT      O 2537   2.299   0.440   1.554  0.1420 -0.2438  0.2596
  619WAT     H1 2538   2.342   0.510   1.602 -0.0552 -0.2403  0.4300
  619WAT     H2 2539   2.346   0.436   1.470  0.7437 -0.5162  0.6036
  619WAT    EPW 2540   2.311   0.448   1.549  0.1953 -0.2793  0.3274
  620WAT      O 2541   0.172   4.261   2.421  0.6019 -0.4305 -0.2979
  620WAT     H1 2542   0.133   4.175   2.407  1.1012 -0.5336 -1.1086
  620WAT     H2 2543   0.193   4.262   2.514 -0.6406 -0.6533  0.0111
  620WAT    EPW 2544   0.170   4.250   2.431  0.5039 -0.4735 -0.3641
  621WAT      O 2545   2.279   0.130   3.022  0.0125  0.3880 -0.4073
  621WAT     H1 2546   2.308   0.088   3.102 -1.6681  0.6428  0.3840
  621WAT     H2 2547   2.356   0.131   2.965  0.5449 -2.1570  0.1855
  621WAT    EPW 2548   2.293   0.125   3.025 -0.1389  0.0859 -0.2247
  622WAT      O 2549   2.551   3.714   2.594 -0.6066  0.0736  0.7571
  622WAT     H1 2550   2.575   3.772   2.666  1.4756 -0.2902  0.4345
  622WAT     H2 2551   2.506   3.770   2.531 -1.8134  0.5434  2.0021
  622WAT    EPW 2552   2.548   3.729   2.595 -0.4911  0.0876  0.8787
  623WAT      O 2553   0.655   1.149   1.208  0.1431 -0.1091  0.3814
  623WAT     H1 2554   0.716   1.211   1.249 -0.9973  1.1287  0.2615
  623WAT     H2 2555   0.582   1.203   1.178 -0.3890 -1.3796 -0.7094
  623WAT    EPW 2556   0.653   1.164   1.210 -0.0775 -0.1134  0.2217
  624WAT      O 2557   2.265   0.778   0.875  0.3655 -0.3526  0.1497
  624WAT     H1 2558   2.197   0.714   0.896 -2.1950  2.2175  0.3316
  624WAT     H2 2559   2.247   0.852   0.934  2.6413  0.9210 -0.6281
  624WAT    EPW 2560   2.254   0.779   0.886  0.3279  0.1544  0.0711
  625WAT      O 2561   3.285   4.245   2.773  0.0776  0.2808 -0.6011
  625WAT     H1 2562   3.267   4.157   2.741 -0.6966  0.1715  0.0895
  625WAT     H2 2563   3.363   4.236   2.827 -0.5192 -0.1821  0.2193
  625WAT    EPW 2564   3.293   4.232   2.776 -0.1032  0.2054 -0.4018
  626WAT      O 2565   2.057   3.650   0.616 -0.0358 -0.0944  0.4090
  626WAT     H1 2566   2.147   3.647   0.651  0.2550 -1.9035 -0.3924
  626WAT     H2 2567   2.022   3.733   0.649  2.0270  0.8171  0.4933
  626WAT    EPW 2568   2.065   3.661   0.625  0.2746 -0.2128  0.3144
  627WAT      O 2569   1.476   2.221   1.565 -0.3924  0.1619 -0.4193
  627WAT     H1 2570   1.515   2.236   1.479  0.9031  0.4561  0.1974
  627WAT     H2 2571   1.464   2.127   1.571 -0.1697  0.1123 -0.7896
  627WAT    EPW 2572   1.480   2.211   1.555 -0.1921  0.1942 -0.3868
  628WAT      O 2573   3.104   2.513   3.321  0.2397 -0.0649  0.1812
  628WAT     H1 2574   3.170   2.446   3.337 -0.2908 -0.2641  1.6916
  628WAT     H2 2575   3.054   2.481   3.246 -0.2021 -1.5276  1.0624
  628WAT    EPW 2576   3.106   2.500   3.314  0.1114 -0.2841  0.4966
  629WAT      O 2577   1.595   2.539   0.487 -0.1947 -0.1622  0.0306
  629WAT     H1 2578   1.561   2.629   0.492  0.7080  0.1439  1.4496
  629WAT     H2 2579   1.666   2.544   0.423 -1.0564 -0.1931 -0.9388
  629WAT    EPW 2580   1.600   2.552   0.479 -0.1893 -0.1259  0.0899
  630WAT      O 2581   3.018   2.637   0.288  0.3385  0.2313 -0.0163
  630WAT     H1 2582   2.987   2.580   0.218 -0.3911  1.1148 -0.4323
  630WAT     H2 2583   2.980   2.601   0.368  0.5916 -0.3584 -0.1592
  630WAT    EPW 2584   3.009   2.625   0.289  0.2756  0.2701 -0.0900
  631WAT      O 2585   3.032   2.700   3.748  0.3413  0.3215  0.3887
  631WAT     H1 2586   3.010   2.628   3.689  1.1675 -0.3065  0.8207
  631WAT     H2 2587   2.951   2.716   3.797  0.1334 -0.2667  0.2410
  631WAT    EPW 2588   3.018   2.693   3.747  0.4228  0.1611  0.4262
  632WAT      O 2589   2.195   1.688   3.980 -0.2177 -0.8694  0.1991
  632WAT     H1 2590   2.214   1.598   4.008 -0.3859 -0.7674  0.6544
  632WAT     H2 2591   2.159   1.730   4.058  0.0293 -0.3530  0.0390
  632WAT    EPW 2592   2.193   1.681   3.994 -0.2073 -0.7878  0.2380
  633WAT      O 2593   2.035   0.565   3.037 -0.7709 -0.0209 -0.2652
  633WAT     H1 2594   1.992   0.563   2.951 -3.0730 -1.5151  0.8454
  633WAT     H2 2595   2.024   0.655   3.067 -1.9830 -0.0502 -0.5706
  633WAT    EPW 2596   2.028   0.577   3.029 -1.2344 -0.2218 -0.1590
  634WAT      O 2597   1.436   2.626   1.437  0.0856 -0.1397  0.2563
  634WAT     H1 2598   1.433   2.563   1.509  0.2376 -0.6623 -0.1823
  634WAT     H2 2599   1.345   2.638   1.412 -0.0081  0.4040  0.8354
  634WAT    EPW 2600   1.424   2.619   1.443  0.0933 -0.1369  0.2748
  635WAT      O 2601   2.383   1.492   0.840 -0.1948 -0.0953  0.3772
  635WAT     H1 2602   2.425   1.483   0.754  0.4021  1.3699  0.4802
  635WAT     H2 2603   2.393   1.406   0.880  1.0247 -0.3301 -0.3724
  635WAT    EPW 2604   2.390   1.480   0.834  0.0448  0.0670  0.2919
  636WAT      O 2605   3.468   0.653   2.983  0.3680 -0.4355 -0.0724
  636WAT     H1 2606   3.497   0.717   3.048 -0.7164 -0.6566  0.6577
  636WAT     H2 2607   3.373   0.665   2.978  0.6082  1.1921 -3.3701
  636WAT    EPW 2608   3.459   0.663   2.991  0.2566 -0.2500 -0.4111
  637WAT      O 2609   2.625   4.212   0.488 -0.3438  0.0001  0.5803
  637WAT     H1 2610   2.709   4.254   0.471 -0.7404  0.7555  0.4262
  637WAT     H2 2611   2.646   4.119   0.497  0.3620  0.0245 -0.5703
  637WAT    EPW 2612   2.639   4.205   0.487 -0.3030  0.1029  0.4082
  638WAT      O 2613   0.079   1.777   2.000  0.2997  0.2594  0.4423
  638WAT     H1 2614  -0.003   1.774   1.951  0.0891  1.0467  0.7347
  638WAT     H2 2615   0.064   1.719   2.075  1.1052 -2.0775 -1.0859
  638WAT    EPW 2616   0.066   1.769   2.003  0.3782  0.0550  0.2793
  639WAT      O 2617   2.312   3.693   1.035 -0.0353  0.0318  0.2440
  639WAT     H1 2618   2.268   3.778   1.027 -0.8508 -0.4471 -0.5263
  639WAT     H2 2619   2.406   3.715   1.032 -0.2329  0.8974 -0.1255
  639WAT    EPW 2620   2.319   3.707   1.033 -0.1690  0.0828  0.0937
  640WAT      O 2621   2.998   0.410   3.227  0.4258  0.2307  0.4176
  640WAT     H1 2622   2.917   0.462   3.226 -0.0040 -0.4362 -0.1178
  640WAT     H2 2623   3.054   0.452   3.162  0.6161  0.8406  0.9600
  640WAT    EPW 2624   2.995   0.422   3.218  0.3943  0.2232  0.4185
  641WAT      O 2625   1.132   1.215   2.970 -0.1889  0.1804  0.8189
  641WAT     H1 2626   1.078   1.292   2.952 -1.4465 -0.7978  0.2333
  641WAT     H2 2627   1.220   1.241   2.942 -0.3718  1.7385  1.5831
  641WAT    EPW 2628   1.137   1.228   2.964 -0.3789  0.2569  0.8424
  642WAT      O 2629   2.852   0.699   2.197 -0.5218 -0.0158  0.0490
  642WAT     H1 2630   2.926   0.759   2.195 -0.8071  0.3169 -0.8348
  642WAT     H2 2631   2.878   0.627   2.139 -0.8022 -0.0090 -0.0860
  642WAT    EPW 2632   2.865   0.697   2.189 -0.5964  0.0290 -0.0854
  643WAT      O 2633   0.136   3.387   0.275  0.1495  0.2927  0.1840
  643WAT     H1 2634   0.229   3.378   0.253  0.0725  1.1735 -0.5380
  643WAT     H2 2635   0.101   3.298   0.268  1.1631 -0.2340  1.5548
  643WAT    EPW 2636   0.144   3.374   0.271  0.2730  0.3394  0.2696
  644WAT      O 2637   1.737   1.561   2.919 -0.2814 -0.3473  0.0207
  644WAT     H1 2638   1.743   1.526   3.008 -0.9090 -2.3107 -0.6443
  644WAT     H2 2639   1.720   1.655   2.931  2.0058 -0.0890  1.9184
  644WAT    EPW 2640   1.735   1.569   2.932 -0.0625 -0.5722  0.1833
  645WAT      O 2641   2.690   2.442   0.296  0.1012  0.2615  0.0257
  645WAT     H1 2642   2.760   2.378   0.283 -0.6441 -0.7415  0.6998
  645WAT     H2 2643   2.644   2.445   0.213 -0.2748 -0.6237  0.1916
  645WAT    EPW 2644   2.693   2.434   0.284 -0.0467  0.0125  0.1365
  646WAT      O 2645   0.683   3.106   1.726  0.3379 -0.2001  0.1166
  646WAT     H1 2646   0.618   3.040   1.703  2.2100 -1.4772 -1.9419
  646WAT     H2 2647   0.688   3.163   1.649  0.0478  1.2712  1.1547
  646WAT    EPW 2648   0.675   3.105   1.713  0.5465 -0.1744 -0.0180
  647WAT      O 2649   3.201   1.990   2.629 -0.1377 -0.3390 -0.1492
  647WAT     H1 2650   3.264   2.009   2.698 -1.3837 -0.5511  1.0802
  647WAT     H2 2651   3.251   1.999   2.548  1.3233  0.0373  0.7624
  647WAT    EPW 2652   3.216   1.994   2.627 -0.1094 -0.3174  0.1332
  648WAT      O 2653   3.154   3.983   0.842  0.1130  0.6161 -0.3922
  648WAT     H1 2654   3.197   4.041   0.779 -2.2800  0.1255 -2.6426
  648WAT     H2 2655   3.067   4.020   0.853 -0.1840 -0.4356  1.1887
  648WAT    EPW 2656   3.149   3.995   0.835 -0.2418  0.4127 -0.4805
  649WAT      O 2657   1.792   0.278   3.108  0.2631  0.4411  0.1530
  649WAT     H1 2658   1.878   0.245   3.135 -0.0009  0.6692  1.3052
  649WAT     H2 2659   1.811   0.334   3.033  1.3632  1.9627  1.5182
  649WAT    EPW 2660   1.806   0.281   3.102  0.3734  0.6719  0.4850
  650WAT      O 2661   0.485   3.032   1.102 -0.0715 -0.0326 -0.5589
  650WAT     H1 2662   0.441   2.971   1.043 -0.4230 -0.8955  0.5522
  650WAT     H2 2663   0.524   2.976   1.170  0.1110  0.9314  0.1569
  650WAT    EPW 2664   0.484   3.016   1.103 -0.0938 -0.0193 -0.3180
  651WAT      O 2665   1.680   2.944   2.132 -0.1462 -0.0644  0.2742
  651WAT     H1 2666   1.743   2.956   2.203 -1.3135  0.7580  1.2176
  651WAT     H2 2667   1.705   3.010   2.067 -1.3092  1.8216  1.6267
  651WAT    EPW 2668   1.692   2.954   2.133 -0.4536  0.2929  0.5770
  652WAT      O 2669   2.902   2.970   1.919 -0.1761 -0.0586  0.5479
  652WAT     H1 2670   2.899   2.876   1.899  0.5981 -0.0245  0.2376
  652WAT     H2 2671   2.985   2.981   1.965  0.8075  0.8236 -1.3154
  652WAT    EPW 2672   2.913   2.959   1.922  0.0557  0.0623  0.2612
  653WAT      O 2673   1.085   0.047   1.099  0.1970  0.2992 -0.0402
  653WAT     H1 2674   0.990   0.063   1.105 -0.0572 -1.4405  1.5485
  653WAT     H2 2675   1.114   0.101   1.026 -1.8767  1.5349 -0.0227
  653WAT    EPW 2676   1.076   0.056   1.090 -0.1100  0.2328  0.1717
  654WAT      O 2677   1.116   3.137   1.032  0.1271  0.0339  0.4633
  654WAT     H1 2678   1.189   3.128   1.093  0.2805  2.5078  0.7596
  654WAT     H2 2679   1.051   3.074   1.062  1.8156 -1.7185  0.6228
  654WAT    EPW 2680   1.118   3.128   1.044  0.3701  0.1290  0.5234
  655WAT      O 2681   2.946   3.130   0.906 -0.6729 -0.2557  0.3849
  655WAT     H1 2682   3.032   3.116   0.944 -0.2921  0.9984  0.0288
  655WAT     H2 2683   2.949   3.084   0.822  0.5126  1.7162 -0.7199
  655WAT    EPW 2684   2.958   3.122   0.900 -0.4663  0.1698  0.1923
  656WAT      O 2685   1.060   2.243   2.648 -0.1129 -0.2536 -0.0872
  656WAT     H1 2686   0.987   2.273   2.594 -1.2069 -1.4961  0.6709
  656WAT     H2 2687   1.111   2.186   2.590  0.6933  1.1513 -0.8264
  656WAT    EPW 2688   1.057   2.240   2.633 -0.1509 -0.2322 -0.0847
  657WAT      O 2689   2.880   3.610   2.817  0.5777  0.3709 -0.5347
  657WAT     H1 2690   2.828   3.656   2.883 -0.9186 -0.8058 -0.8501
  657WAT     H2 2691   2.946   3.562   2.867  0.7122  1.0324 -0.0561
  657WAT    EPW 2692   2.882   3.610   2.832  0.3981  0.3030 -0.5131
  658WAT      O 2693   2.459   2.073   1.658  0.2738  0.0519  0.0212
  658WAT     H1 2694   2.495   2.081   1.569  0.3449 -0.1238  0.0338
  658WAT     H2 2695   2.366   2.090   1.647  0.5014  1.4842  0.1356
  658WAT    EPW 2696   2.452   2.076   1.645  0.3132  0.2176  0.0379
  659WAT      O 2697   1.649   3.223   3.612 -0.0967 -1.0089  0.1101
  659WAT     H1 2698   1.665   3.262   3.698 -0.2650 -0.4500 -0.1074
  659WAT     H2 2699   1.612   3.137   3.631 -0.2637 -0.8339  0.5988
  659WAT    EPW 2700   1.646   3.217   3.626 -0.1409 -0.9121  0.1459
  660WAT      O 2701   1.679   3.712   2.815 -0.1108 -0.4274 -0.0283
  660WAT     H1 2702   1.622   3.772   2.767  0.5833  0.4725  0.2442
  660WAT     H2 2703   1.754   3.700   2.758  0.0144 -0.5797  0.1693
  660WAT    EPW 2704   1.681   3.719   2.801 -0.0027 -0.3288  0.0337
  661WAT      O 2705   3.234   2.313   0.736 -0.6888  0.1727 -0.1749
  661WAT     H1 2706   3.295   2.382   0.711 -1.6560  1.3742  0.6397
  661WAT     H2 2707   3.159   2.324   0.677 -1.0486  0.1372  0.2655
  661WAT    EPW 2708   3.232   2.324   0.725 -0.8638  0.3265 -0.0093
  662WAT      O 2709   3.002   3.227   2.253  0.7874 -0.7602  0.3938
  662WAT     H1 2710   2.979   3.144   2.295 -1.4839 -0.4335 -0.0869
  662WAT     H2 2711   3.038   3.201   2.168 -0.2646 -1.2942  0.0830
  662WAT    EPW 2712   3.004   3.213   2.247  0.3491 -0.7875  0.2894
  663WAT      O 2713   2.605   2.545   2.102 -0.7580  0.3395 -0.3838
  663WAT     H1 2714   2.532   2.515   2.048 -0.9362 -1.0401  0.5767
  663WAT     H2 2715   2.684   2.514   2.057 -0.9242 -1.2556  0.3643
  663WAT    EPW 2716   2.606   2.537   2.089 -0.8034 -0.0528 -0.1585
  664WAT      O 2717   2.206   2.760   2.875  0.3910 -0.0257 -0.1502
  664WAT     H1 2718   2.173   2.729   2.960 -1.1393  0.0038 -0.6930
  664WAT     H2 2719   2.154   2.839   2.856 -0.9455 -1.2641 -2.1064
  664WAT    EPW 2720   2.195   2.766   2.884  0.0129 -0.1851 -0.4798
  665WAT      O 2721   0.503   1.978   3.757 -0.3626 -0.7403  0.3850
  665WAT     H1 2722   0.463   1.997   3.673 -1.3640 -0.9503  0.7985
  665WAT     H2 2723   0.527   2.063   3.793 -1.8237 -0.4660  0.7846
  665WAT    EPW 2724   0.501   1.991   3.751 -0.6874 -0.7318  0.4922
  666WAT      O 2725   2.021   1.981   3.295 -0.4649  0.2457 -0.3386
  666WAT     H1 2726   1.972   1.899   3.290  2.1704 -1.3395 -2.3590
  666WAT     H2 2727   2.007   2.022   3.209 -0.0446  0.8675 -0.1163
  666WAT    EPW 2728   2.013   1.976   3.283 -0.0618  0.1186 -0.5757
  667WAT      O 2729   2.857   1.479   3.558  0.0260  0.2844  0.2093
  667WAT     H1 2730   2.909   1.429   3.622  0.7610 -0.1584 -0.7159
  667WAT     H2 2731   2.913   1.553   3.535  0.3225 -0.2527 -0.8763
  667WAT    EPW 2732   2.871   1.482   3.564  0.1620  0.1551 -0.0559
  668WAT      O 2733   0.516   0.547   1.477 -0.0572  0.0936  0.3044
  668WAT     H1 2734   0.564   0.558   1.395  0.8944 -1.2950  0.6334
  668WAT     H2 2735   0.579   0.573   1.545 -0.7884  1.0934  0.6321
  668WAT    EPW 2736   0.531   0.552   1.475 -0.0281  0.0424  0.3910
  669WAT      O 2737   1.915   1.660   3.508  0.0867 -0.0761  0.4172
  669WAT     H1 2738   2.006   1.634   3.497 -0.8210 -3.3412 -0.3180
  669WAT     H2 2739   1.886   1.685   3.420 -0.1349 -0.5611  0.3503
  669WAT    EPW 2740   1.923   1.660   3.495 -0.0622 -0.5707  0.3114
  670WAT      O 2741   2.933   2.693   2.198 -0.4173  0.2703 -0.2551
  670WAT     H1 2742   2.839   2.675   2.200 -0.2154 -0.8256  0.8220
  670WAT     H2 2743   2.942   2.780   2.235 -0.9568  0.1069  0.2657
  670WAT    EPW 2744   2.921   2.702   2.203 -0.4618  0.1042 -0.0444
  671WAT      O 2745   1.129   2.302   2.230  0.4472  0.0264  0.0981
  671WAT     H1 2746   1.195   2.366   2.258  0.2616 -0.0912  0.8348
  671WAT     H2 2747   1.090   2.340   2.152 -0.3141  1.2799  1.0394
  671WAT    EPW 2748   1.133   2.315   2.224  0.3223  0.1762  0.3194
  672WAT      O 2749   0.768   2.218   0.279 -0.1248  0.6855 -0.3632
  672WAT     H1 2750   0.704   2.165   0.232 -0.5611 -1.3143  2.2710
  672WAT     H2 2751   0.815   2.265   0.210 -0.8886 -1.8144 -2.7644
  672WAT    EPW 2752   0.766   2.217   0.264 -0.2831  0.0920 -0.3325
  673WAT      O 2753   0.146   3.680   2.859 -0.0759  0.0012  0.1150
  673WAT     H1 2754   0.155   3.591   2.824  0.9282  0.4323 -0.7726
  673WAT     H2 2755   0.218   3.729   2.819 -1.1485  1.4438 -0.1398
  673WAT    EPW 2756   0.156   3.675   2.849 -0.0849  0.2483 -0.0357
  674WAT      O 2757   2.626   0.763   2.418 -0.1729  0.3259 -0.1953
  674WAT     H1 2758   2.545   0.799   2.455 -0.6829  0.4734 -1.3959
  674WAT     H2 2759   2.642   0.816   2.340  1.1846  0.3965  0.1077
  674WAT    EPW 2760   2.617   0.775   2.412 -0.0611  0.3547 -0.3137
  675WAT      O 2761   2.300   1.165   3.512 -0.1617  0.6250  0.3284
  675WAT     H1 2762   2.350   1.204   3.441 -0.4393  0.3547 -0.0183
  675WAT     H2 2763   2.288   1.073   3.485  1.2732  0.0453  1.5387
  675WAT    EPW 2764   2.305   1.158   3.499 -0.0091  0.5129  0.4423
  676WAT      O 2765   2.729   1.263   3.898  0.1037  0.0562  0.4388
  676WAT     H1 2766   2.823   1.256   3.881  0.3869 -0.2610  1.9365
  676WAT     H2 2767   2.723   1.311   3.981 -1.1261  1.1918 -0.2723
  676WAT    EPW 2768   2.741   1.268   3.907 -0.0211  0.1641  0.5426
  677WAT      O 2769   2.023   1.669   2.993 -0.2248 -0.0638  0.2602
  677WAT     H1 2770   2.026   1.576   2.972 -0.4446 -0.2294  0.9173
  677WAT     H2 2771   2.115   1.696   2.997 -0.1758  0.1686 -1.6373
  677WAT    EPW 2772   2.035   1.661   2.991 -0.2473 -0.0550  0.0966
  678WAT      O 2773   0.736   3.577   2.371 -0.2943  0.3094 -0.1210
  678WAT     H1 2774   0.803   3.577   2.303 -0.0872  0.2291  0.0774
  678WAT     H2 2775   0.770   3.516   2.437 -0.1197  0.9664  0.4122
  678WAT    EPW 2776   0.750   3.569   2.371 -0.2439  0.3854 -0.0245
  679WAT      O 2777   1.896   3.184   0.416 -0.0368 -0.0765  0.1331
  679WAT     H1 2778   1.919   3.142   0.499  0.8410  1.6225  0.8000
  679WAT     H2 2779   1.819   3.238   0.437  0.5926  0.8810  0.0388
  679WAT    EPW 2780   1.889   3.186   0.430  0.1620  0.2739  0.2086
  680WAT      O 2781   3.558   3.308   1.558  0.0978 -0.6508 -0.3265
  680WAT     H1 2782   3.580   3.286   1.468  0.6181  1.1146 -0.6592
  680WAT     H2 2783   3.473   3.266   1.573 -0.4504 -0.1940 -1.9602
  680WAT    EPW 2784   3.550   3.299   1.548  0.0941 -0.3577 -0.5859
  681WAT      O 2785   2.753   0.092   1.485  0.4234  0.2593  0.1508
  681WAT     H1 2786   2.722   0.180   1.505  0.8889  0.2542  0.9107
  681WAT     H2 2787   2.674   0.038   1.489 -0.3360  0.9884 -2.7666
  681WAT    EPW 2788   2.738   0.096   1.488  0.3846  0.3548 -0.1338
  682WAT      O 2789   2.907   0.093   0.625  0.4166  0.5527  0.6040
  682WAT     H1 2790   2.880   0.108   0.716  0.1317  0.1044  0.5936
  682WAT     H2 2791   2.983   0.151   0.613 -0.8406  2.2353  0.4674
  682WAT    EPW 2792   2.914   0.103   0.635  0.2132  0.7155  0.5846
  683WAT      O 2793   1.020   1.100   0.723 -0.0711 -0.0829  0.1675
  683WAT     H1 2794   0.963   1.168   0.758 -0.1652 -0.0096 -0.1217
  683WAT     H2 2795   0.959   1.031   0.694  0.0491 -0.5164  0.9300
  683WAT    EPW 2796   1.004   1.100   0.724 -0.0677 -0.1304  0.2300
  684WAT      O 2797   0.623   4.209   2.675  0.2478 -0.1259  0.2936
  684WAT     H1 2798   0.528   4.212   2.665  0.2784 -0.1815 -0.0439
  684WAT     H2 2799   0.654   4.290   2.633  0.3931 -0.4272 -0.1947
  684WAT    EPW 2800   0.615   4.220   2.668  0.2710 -0.1730  0.1847
  685WAT      O 2801   0.961   1.154   0.178  0.2173  0.2062  0.5764
  685WAT     H1 2802   0.916   1.110   0.106  1.0732  1.0147 -0.4947
  685WAT     H2 2803   0.946   1.098   0.254 -0.0370 -1.0994 -0.3967
  685WAT    EPW 2804   0.953   1.141   0.179  0.2967  0.1406  0.3068
  686WAT      O 2805   1.152   3.430   1.305  0.2510 -0.3275  0.2691
  686WAT     H1 2806   1.189   3.440   1.217 -2.5641  4.0718 -0.7213
  686WAT     H2 2807   1.227   3.438   1.363  1.6851  4.9505 -1.6863
  686WAT    EPW 2808   1.167   3.432   1.301  0.0689  0.9489 -0.1195
  687WAT      O 2809   0.696   1.299   3.361 -0.2579 -0.5305 -0.4231
  687WAT     H1 2810   0.762   1.298   3.431  0.5726  1.9508 -1.0762
  687WAT     H2 2811   0.743   1.332   3.284 -2.1657  0.9587 -1.0073
  687WAT    EPW 2812   0.711   1.303   3.360 -0.4000 -0.0068 -0.5863
  688WAT      O 2813   2.824   0.155   1.197  0.1471 -0.0605 -0.2782
  688WAT     H1 2814   2.824   0.099   1.274  0.5995 -0.5548 -0.6336
  688WAT     H2 2815   2.758   0.116   1.139  0.1132  0.0615 -0.3228
  688WAT    EPW 2816   2.815   0.143   1.199  0.2023 -0.1096 -0.3310
  689WAT      O 2817   1.434   2.384   3.660  0.0993  0.0070  0.1500
  689WAT     H1 2818   1.510   2.325   3.662 -0.2824 -0.4846  0.4572
  689WAT     H2 2819   1.428   2.412   3.568  0.3740 -0.3238  0.0290
  689WAT    EPW 2820   1.443   2.380   3.648  0.0852 -0.1015  0.1745
  690WAT      O 2821   2.664   1.867   1.831 -0.3788 -0.1176  0.1696
  690WAT     H1 2822   2.758   1.885   1.837 -0.4183 -0.3687  1.9196
  690WAT     H2 2823   2.652   1.785   1.878 -1.1045 -1.6325 -2.4754
  690WAT    EPW 2824   2.675   1.859   1.838 -0.4797 -0.3505  0.0516
  691WAT      O 2825   3.393   3.347   1.182 -0.1840 -0.0912 -0.0846
  691WAT     H1 2826   3.391   3.416   1.116 -1.5291  0.5908  0.6209
  691WAT     H2 2827   3.360   3.270   1.137 -0.3011  0.1576 -0.4292
  691WAT    EPW 2828   3.389   3.346   1.167 -0.3768  0.0316 -0.0370
  692WAT      O 2829   0.241   0.022   3.387  0.1053  0.0533  0.1751
  692WAT     H1 2830   0.314   0.062   3.339 -1.2376  2.0537 -0.3377
  692WAT     H2 2831   0.178   0.093   3.398 -2.6251 -1.9836 -1.0417
  692WAT    EPW 2832   0.242   0.037   3.382 -0.4319  0.0485 -0.0530
  693WAT      O 2833   2.431   1.951   3.107  0.0779  0.4007 -0.2328
  693WAT     H1 2834   2.375   1.928   3.033  0.0728  1.5965 -0.6201
  693WAT     H2 2835   2.421   2.045   3.117  0.4996  0.3389  0.9593
  693WAT    EPW 2836   2.422   1.960   3.098  0.1328  0.5502 -0.1267
  694WAT      O 2837   2.449   3.142   1.156 -0.1082  0.2589 -0.1712
  694WAT     H1 2838   2.508   3.192   1.099 -0.8316  1.4071  0.0421
  694WAT     H2 2839   2.390   3.208   1.193 -0.6003 -0.6624  0.7538
  694WAT    EPW 2840   2.449   3.157   1.153 -0.2685  0.2888 -0.0211
  695WAT      O 2841   2.227   0.917   3.413 -0.1433  0.2319  0.0536
  695WAT     H1 2842   2.184   0.908   3.498 -1.2038  0.5269 -0.4397
  695WAT     H2 2843   2.259   0.829   3.393  1.1370  0.3834  1.2599
  695WAT    EPW 2844   2.226   0.904   3.421 -0.1143  0.2908  0.1476
  696WAT      O 2845   2.221   3.328   1.218 -0.7165  0.3239 -0.3339
  696WAT     H1 2846   2.129   3.304   1.201 -1.1666  2.7646 -1.7572
  696WAT     H2 2847   2.250   3.370   1.138  1.4879  0.1563  0.3287
  696WAT    EPW 2848   2.212   3.330   1.205 -0.4851  0.6237 -0.4343
  697WAT      O 2849   0.873   3.184   2.086  0.1036  0.5065 -0.2995
  697WAT     H1 2850   0.784   3.150   2.096  0.4115 -0.9653 -2.1382
  697WAT     H2 2851   0.897   3.213   2.174 -2.2393  1.1282  0.2150
  697WAT    EPW 2852   0.865   3.183   2.099 -0.1648  0.3944 -0.4742
  698WAT      O 2853   2.822   3.890   1.084  0.3571 -0.1985 -0.5095
  698WAT     H1 2854   2.855   3.800   1.080  0.6798 -0.0888 -0.3634
  698WAT     H2 2855   2.751   3.887   1.148  1.1941 -0.0969  0.4467
  698WAT    EPW 2856   2.817   3.878   1.092  0.5101 -0.1706 -0.3641
  699WAT      O 2857   2.979   3.445   0.349  1.1727  0.6155 -0.5738
  699WAT     H1 2858   2.978   3.540   0.358 -0.0391  0.5571  0.2253
  699WAT     H2 2859   2.886   3.421   0.346  1.4071 -0.3437 -3.2832
  699WAT    EPW 2860   2.966   3.455   0.350  1.0438  0.4813 -0.8258
  700WAT      O 2861   3.671   0.086   2.164  0.3049 -0.5971 -0.1399
  700WAT     H1 2862   3.712   0.003   2.191  0.9202  0.0761  1.0409
  700WAT     H2 2863   3.743   0.137   2.128  0.8769  1.0828  3.0724
  700WAT    EPW 2864   3.686   0.082   2.163  0.4615 -0.2867  0.4395
  701WAT      O 2865   0.292   0.611   0.744  0.1639  0.1558  0.0216
  701WAT     H1 2866   0.225   0.677   0.729 -1.3777 -0.8439  1.9833
  701WAT     H2 2867   0.313   0.578   0.657 -1.4335  0.9478 -0.7103
  701WAT    EPW 2868   0.286   0.615   0.731 -0.2501  0.1284  0.1838
  702WAT      O 2869   1.203   1.494   3.308 -0.3877 -0.1732  0.4171
  702WAT     H1 2870   1.247   1.474   3.225  0.2008  1.3127  0.3338
  702WAT     H2 2871   1.260   1.456   3.375  0.0944  0.1543  0.2090
  702WAT    EPW 2872   1.217   1.487   3.306 -0.2465  0.0660  0.3787
  703WAT      O 2873   1.075   2.616   1.661 -0.1092  0.1374 -0.4317
  703WAT     H1 2874   1.016   2.687   1.687 -0.0247  0.7090 -1.7110
  703WAT     H2 2875   1.035   2.537   1.696 -0.6242  0.7310  0.3458
  703WAT    EPW 2876   1.062   2.615   1.669 -0.1660  0.2911 -0.4979
  704WAT      O 2877   2.020   0.067   1.658  0.4257 -0.4951 -0.1797
  704WAT     H1 2878   2.039   0.130   1.589 -2.5503  0.1254 -0.5778
  704WAT     H2 2879   2.099   0.066   1.712  0.9934  2.8187 -0.7193
  704WAT    EPW 2880   2.033   0.075   1.656  0.1081  0.0238 -0.3034
  705WAT      O 2881   2.499   2.503   1.503  0.0581  0.3856 -0.6180
  705WAT     H1 2882   2.534   2.491   1.591 -1.2847  0.9942  0.0146
  705WAT     H2 2883   2.470   2.594   1.500  1.0729  0.6979 -2.0646
  705WAT    EPW 2884   2.500   2.513   1.514  0.0149  0.5071 -0.7253
  706WAT      O 2885   0.788   0.942   0.681  0.7444  0.2580  0.1267
  706WAT     H1 2886   0.794   0.848   0.666  1.5229  0.4296 -0.6745
  706WAT     H2 2887   0.764   0.950   0.774  1.2025 -0.7075  0.3330
  706WAT    EPW 2888   0.785   0.931   0.691  0.9075  0.1533  0.0482
  707WAT      O 2889   0.252   2.706   0.215  0.5723  0.0761 -0.6553
  707WAT     H1 2890   0.307   2.737   0.143  1.1227 -0.1781 -0.3537
  707WAT     H2 2891   0.313   2.657   0.272  0.4626  1.4611  0.7283
  707WAT    EPW 2892   0.268   2.704   0.213  0.6304  0.2253 -0.4331
  708WAT      O 2893   3.121   2.451   1.142 -0.1798  0.6222  0.1263
  708WAT     H1 2894   3.098   2.544   1.140 -0.5005  0.5647  0.6408
  708WAT     H2 2895   3.077   2.418   1.221  0.6205  0.2162  0.4156
  708WAT    EPW 2896   3.112   2.459   1.152 -0.1166  0.5611  0.2323
  709WAT      O 2897   0.078   0.970   1.369 -0.6526 -0.6100 -0.0760
  709WAT     H1 2898   0.023   0.923   1.308  0.2139 -2.7238  0.6777
  709WAT     H2 2899   0.114   0.902   1.426  2.6804  0.6119 -0.5003
  709WAT    EPW 2900   0.076   0.955   1.369 -0.0987 -0.7276 -0.0326
  710WAT      O 2901   1.164   0.038   3.128 -0.0104 -0.3946  0.1564
  710WAT     H1 2902   1.086   0.013   3.078 -1.1232  0.7574  1.2308
  710WAT     H2 2903   1.151  -0.001   3.214 -0.0121  0.8130  0.7221
  710WAT    EPW 2904   1.152   0.029   3.132 -0.1574 -0.0834  0.3727
  711WAT      O 2905   2.428   3.532   2.238 -0.4282  0.0670 -0.2872
  711WAT     H1 2906   2.379   3.613   2.255  1.5279  1.2335  0.1354
  711WAT     H2 2907   2.507   3.561   2.191  1.4286 -1.2506  1.7874
  711WAT    EPW 2908   2.432   3.547   2.234  0.0747  0.0471  0.0422
  712WAT      O 2909   0.319   2.838   0.964  0.2795  0.0175 -0.0872
  712WAT     H1 2910   0.381   2.765   0.965  0.5221  0.1801 -1.5445
  712WAT     H2 2911   0.294   2.847   0.872 -1.8637  0.0099  0.4513
  712WAT    EPW 2912   0.324   2.829   0.952  0.0289  0.0379 -0.2084
  713WAT      O 2913   1.321   3.680   3.166 -0.6421  0.2510  0.0127
  713WAT     H1 2914   1.346   3.698   3.075 -0.1924 -0.3667  0.0111
  713WAT     H2 2915   1.241   3.628   3.158 -0.3500 -0.1923 -0.0407
  713WAT    EPW 2916   1.314   3.676   3.153 -0.5442  0.1111  0.0054
  714WAT      O 2917   2.261   1.379   1.676 -0.1649  0.4017  0.0999
  714WAT     H1 2918   2.218   1.312   1.623 -0.8117  1.8883 -1.3173
  714WAT     H2 2919   2.247   1.350   1.766 -1.2945 -0.8536 -0.4441
  714WAT    EPW 2920   2.253   1.367   1.681 -0.3992  0.4322 -0.1588
  715WAT      O 2921   1.217   4.012   2.510 -1.0019  0.5777 -0.1737
  715WAT     H1 2922   1.195   4.099   2.478 -0.8187  0.2129 -1.3523
  715WAT     H2 2923   1.280   4.027   2.581 -2.6166  1.4810  1.1439
  715WAT    EPW 2924   1.222   4.025   2.515 -1.1907  0.6487 -0.1554
  716WAT      O 2925   1.881   2.029   4.012  0.1921 -0.3778  0.1211
  716WAT     H1 2926   1.795   1.992   4.032  1.3828 -1.2788  4.9621
  716WAT     H2 2927   1.877   2.119   4.044  1.3478 -0.8662  1.7950
  716WAT    EPW 2928   1.869   2.036   4.019  0.5016 -0.5611  0.9804
  717WAT      O 2929   1.370   1.472   3.632 -0.1264  0.2886 -0.2564
  717WAT     H1 2930   1.456   1.495   3.598  0.8176  0.7113  2.1671
  717WAT     H2 2931   1.372   1.376   3.639 -0.0093  0.2662 -0.5973
  717WAT    EPW 2932   1.382   1.462   3.629  0.0135  0.3414  0.0183
  718WAT      O 2933   2.049   1.138   0.743  0.0131 -0.2785 -0.0627
  718WAT     H1 2934   2.021   1.063   0.795  2.0727  0.4271  2.2544
  718WAT     H2 2935   2.145   1.135   0.746  0.1597  2.1047 -0.3848
  718WAT    EPW 2936   2.058   1.128   0.750  0.3041  0.1289  0.2004
  719WAT      O 2937   1.534   3.567   0.199  0.1839  0.5801  0.1986
  719WAT     H1 2938   1.514   3.652   0.159 -0.3993 -0.1059 -1.0041
  719WAT     H2 2939   1.451   3.519   0.198  1.0359 -0.9718 -1.5482
  719WAT    EPW 2940   1.520   3.572   0.194  0.2194  0.2849 -0.1904
  720WAT      O 2941   2.329   2.364   2.122  0.3453 -0.0977 -0.2240
  720WAT     H1 2942   2.408   2.316   2.150 -0.4961 -0.7632  1.0956
  720WAT     H2 2943   2.295   2.403   2.202 -0.3232  0.7274 -0.8965
  720WAT    EPW 2944   2.335   2.362   2.136  0.1461 -0.0766 -0.1387
  721WAT      O 2945   3.353   4.054   2.349 -0.2010 -0.2733  0.1310
  721WAT     H1 2946   3.259   4.037   2.343  0.2609 -5.1054  1.9391
  721WAT     H2 2947   3.388   4.025   2.264 -0.2493  1.0572 -0.3586
  721WAT    EPW 2948   3.345   4.048   2.337 -0.1465 -0.7352  0.3049
  722WAT      O 2949   1.347   2.155   3.295  0.2716  0.2659 -0.5651
  722WAT     H1 2950   1.394   2.171   3.213 -2.1426  1.7056 -1.7776
  722WAT     H2 2951   1.255   2.163   3.272 -0.5148  0.4074  2.2535
  722WAT    EPW 2952   1.341   2.158   3.281 -0.1506  0.4744 -0.3532
  723WAT      O 2953   3.469   3.406   3.657  0.7017 -0.7354  1.2439
  723WAT     H1 2954   3.395   3.430   3.713  0.9228 -1.2154  1.7466
  723WAT     H2 2955   3.441   3.430   3.568  1.5448  3.0505  1.8179
  723WAT    EPW 2956   3.456   3.412   3.652  0.8421 -0.2994  1.3859
  724WAT      O 2957   3.347   2.442   2.427  0.8528  0.3971  0.1856
  724WAT     H1 2958   3.348   2.511   2.361 -0.8762  0.4508  0.1557
  724WAT     H2 2959   3.315   2.485   2.507 -1.5748 -0.5515 -0.1705
  724WAT    EPW 2960   3.343   2.457   2.429  0.3046  0.2791  0.1347
  725WAT      O 2961   2.674   2.152   3.342 -0.7137 -0.3019 -0.5586
  725WAT     H1 2962   2.628   2.196   3.270  0.0068  0.3415 -0.6285
  725WAT     H2 2963   2.696   2.222   3.403  0.0731 -0.6227 -0.4712
  725WAT    EPW 2964   2.671   2.167   3.340 -0.5149 -0.2593 -0.5563
  726WAT      O 2965   2.552   3.669   0.120 -0.0956 -0.5413 -0.1505
  726WAT     H1 2966   2.604   3.598   0.156 -3.1908 -2.4405  0.9959
  726WAT     H2 2967   2.501   3.628   0.050  0.2679  1.3299 -1.5828
  726WAT    EPW 2968   2.552   3.654   0.115 -0.4559 -0.5449 -0.1882
  727WAT      O 2969   2.748   1.717   2.607  0.4105 -0.4130 -0.8006
  727WAT     H1 2970   2.798   1.799   2.609 -0.0765 -0.1040  1.4576
  727WAT     H2 2971   2.694   1.720   2.685  0.2330 -2.8233 -0.7499
  727WAT    EPW 2972   2.748   1.728   2.617  0.3228 -0.6902 -0.4961
  728WAT      O 2973   1.756   0.193   0.223  0.3546  0.0575 -0.2186
  728WAT     H1 2974   1.793   0.277   0.194 -0.2248  0.0927 -0.8950
  728WAT     H2 2975   1.701   0.216   0.297  1.3889  0.0525  0.5794
  728WAT    EPW 2976   1.754   0.207   0.229  0.4146  0.0615 -0.2025
  729WAT      O 2977   1.048   2.545   2.939  0.0943  0.8610 -0.3631
  729WAT     H1 2978   1.048   2.499   3.023 -0.8598 -0.9658 -1.2998
  729WAT     H2 2979   1.121   2.506   2.891  0.1344  1.3160 -0.6711
  729WAT    EPW 2980   1.058   2.533   2.944 -0.0263  0.6801 -0.5272
  730WAT      O 2981   0.973   0.203   3.774 -0.6837 -0.0847  0.0499
  730WAT     H1 2982   0.940   0.232   3.858 -1.9118  1.0123 -0.7768
  730WAT     H2 2983   0.930   0.259   3.710  1.8277  0.5946 -1.2001
  730WAT    EPW 2984   0.963   0.214   3.776 -0.5144  0.1495 -0.2240
  731WAT      O 2985   0.111   3.479   3.122  0.2130  0.4677 -0.2328
  731WAT     H1 2986   0.140   3.569   3.105  2.8395 -0.4961 -1.2401
  731WAT     H2 2987   0.136   3.430   3.044 -1.7234 -1.0888  0.0274
  731WAT    EPW 2988   0.118   3.485   3.109  0.3041  0.1353 -0.3313
  732WAT      O 2989   0.126   4.265   3.037  0.5634 -0.0994  0.1980
  732WAT     H1 2990   0.214   4.303   3.039  0.8492 -0.7528  1.5481
  732WAT     H2 2991   0.090   4.292   2.953  1.2289  2.0224  0.5418
  732WAT    EPW 2992   0.133   4.274   3.026  0.6889  0.0943  0.4214
  733WAT      O 2993   0.320   1.110   1.278 -0.1746 -0.2993  0.6013
  733WAT     H1 2994   0.284   1.198   1.286 -0.8486 -0.6363  1.5170
  733WAT     H2 2995   0.249   1.053   1.306  0.1876 -1.1574 -0.1553
  733WAT    EPW 2996   0.306   1.114   1.282 -0.2158 -0.4569  0.6223
  734WAT      O 2997   3.167   0.818   3.696  0.1708  0.2978  0.2986
  734WAT     H1 2998   3.148   0.880   3.767 -0.1874  1.2792 -0.6160
  734WAT     H2 2999   3.173   0.873   3.617 -1.3613 -0.9675 -0.7573
  734WAT    EPW 3000   3.165   0.834   3.695 -0.0785  0.2604  0.0387
  735WAT      O 3001   1.327   2.501   1.672  0.0090 -0.2335  0.5006
  735WAT     H1 3002   1.278   2.423   1.696  0.1667 -0.0808  1.3367
  735WAT     H2 3003   1.265   2.573   1.682  0.2898 -0.0827  1.1996
  735WAT    EPW 3004   1.312   2.500   1.676  0.0668 -0.1934  0.7031
  736WAT      O 3005   2.483   1.043   2.507 -0.0773 -0.0074 -0.2434
  736WAT     H1 3006   2.395   1.078   2.523 -0.3531 -1.6297  2.6138
  736WAT     H2 3007   2.481   1.012   2.417 -1.8940  1.4416 -0.7555
  736WAT    EPW 3008   2.471   1.043   2.497 -0.3533 -0.0303  0.0659
  737WAT      O 3009   1.250   1.183   1.307  0.7169 -0.0531  0.4235
  737WAT     H1 3010   1.278   1.273   1.321  0.3649 -0.1660  2.0534
  737WAT     H2 3011   1.181   1.190   1.241  0.7473  0.8643  0.4738
  737WAT    EPW 3012   1.244   1.196   1.300  0.6744  0.0530  0.6451
  738WAT      O 3013   0.641   2.466   2.007  0.1731 -0.2342  0.0779
  738WAT     H1 3014   0.687   2.548   1.988  0.3592 -0.3490  0.0255
  738WAT     H2 3015   0.569   2.491   2.064  0.1478 -0.0134 -0.0501
  738WAT    EPW 3016   0.638   2.480   2.012  0.1943 -0.2202  0.0541
  739WAT      O 3017   1.678   1.103   0.353 -0.3905  0.2389 -0.0932
  739WAT     H1 3018   1.760   1.052   0.348  0.1522  1.0490  0.3368
  739WAT     H2 3019   1.610   1.039   0.333  0.3739 -0.3702 -0.8692
  739WAT    EPW 3020   1.680   1.088   0.350 -0.2181  0.2655 -0.1388
  740WAT      O 3021   1.050   1.331   3.976  0.0754  0.2823  0.1466
  740WAT     H1 3022   1.030   1.264   4.041 -0.0188  0.7117  0.5696
  740WAT     H2 3023   1.110   1.390   4.021 -0.2319  0.7564 -0.0550
  740WAT    EPW 3024   1.056   1.330   3.990  0.0224  0.4015  0.1758
  741WAT      O 3025   0.952   4.200   2.032 -0.2346 -0.0899 -0.0281
  741WAT     H1 3026   1.037   4.177   2.069 -0.5639 -0.3526  0.5814
  741WAT     H2 3027   0.889   4.152   2.086 -0.7375 -0.3248 -0.8132
  741WAT    EPW 3028   0.955   4.191   2.044 -0.3444 -0.1556 -0.0513
  742WAT      O 3029   2.978   3.781   1.317 -0.1854  0.1631  0.7685
  742WAT     H1 3030   2.900   3.730   1.338 -0.1121 -0.0504  0.5300
  742WAT     H2 3031   3.050   3.731   1.354 -0.0637 -0.1742  0.0873
  742WAT    EPW 3032   2.977   3.768   1.324 -0.1597  0.0905  0.6472
  743WAT      O 3033   1.265   3.639   0.843 -0.3721 -0.1452 -0.0037
  743WAT     H1 3034   1.318   3.712   0.874  0.2930  0.3728 -2.2231
  743WAT     H2 3035   1.175   3.667   0.857 -0.1155  0.1757  1.1206
  743WAT    EPW 3036   1.260   3.652   0.849 -0.2505 -0.0346 -0.1482
  744WAT      O 3037   1.051   0.563   2.572 -0.4067 -0.2124  0.4221
  744WAT     H1 3038   1.078   0.652   2.596 -0.3751  0.4779 -1.9786
  744WAT     H2 3039   0.958   0.560   2.596 -0.4260  0.4859  0.4567
  744WAT    EPW 3040   1.042   0.575   2.578 -0.4051 -0.0292  0.1101
  745WAT      O 3041   3.181   2.027   0.335  0.6943  1.1151  0.3297
  745WAT     H1 3042   3.189   2.089   0.262  1.1496 -0.5217 -1.0642
  745WAT     H2 3043   3.122   1.959   0.303 -0.3714  1.1291  2.0930
  745WAT    EPW 3044   3.174   2.026   0.321  0.6138  0.9011  0.3784
  746WAT      O 3045   2.745   1.824   3.585 -0.5928 -0.5192 -0.6250
  746WAT     H1 3046   2.829   1.788   3.555  0.4045  1.2504 -0.0483
  746WAT     H2 3047   2.689   1.820   3.507  0.2240 -1.1162 -1.2022
  746WAT    EPW 3048   2.749   1.819   3.571 -0.3535 -0.3645 -0.6251
  747WAT      O 3049   1.675   2.874   0.974 -0.6331 -0.1744 -0.3112
  747WAT     H1 3050   1.652   2.951   1.027 -0.7323 -0.2035 -0.3122
  747WAT     H2 3051   1.612   2.807   1.000  0.5171 -0.8112  0.9588
  747WAT    EPW 3052   1.664   2.875   0.985 -0.4945 -0.2622 -0.1439
  748WAT      O 3053   0.357   3.891   3.870 -0.1370 -0.0667 -0.1442
  748WAT     H1 3054   0.276   3.933   3.901 -1.2990 -3.5744  2.1870
  748WAT     H2 3055   0.334   3.858   3.783 -0.6212  0.4721 -0.2312
  748WAT    EPW 3056   0.343   3.892   3.863 -0.3542 -0.4583  0.1518
  749WAT      O 3057   3.282   0.438   1.674 -0.2771 -0.6211 -0.3365
  749WAT     H1 3058   3.229   0.397   1.743 -1.1105 -0.3279 -0.7900
  749WAT     H2 3059   3.364   0.388   1.675 -0.8573 -1.6025 -0.1479
  749WAT    EPW 3060   3.286   0.426   1.684 -0.4635 -0.7119 -0.3714
  750WAT      O 3061   2.032   3.850   3.549  0.6585 -0.6570 -0.1987
  750WAT     H1 3062   1.988   3.812   3.473  2.1787 -0.2411 -1.3310
  750WAT     H2 3063   2.010   3.791   3.621  0.6102 -2.0451 -1.3053
  750WAT    EPW 3064   2.023   3.837   3.548  0.8527 -0.7852 -0.4940
  751WAT      O 3065   0.852   3.932   2.091  0.1979  0.5962  0.0286
  751WAT     H1 3066   0.922   3.870   2.112 -1.9481 -1.8372  0.4092
  751WAT     H2 3067   0.869   3.958   2.001  1.0448 -0.7291 -0.2189
  751WAT    EPW 3068   0.864   3.927   2.082  0.0265  0.1004  0.0461
  752WAT      O 3069   1.061   1.593   2.304 -0.3742 -0.0618 -0.2106
  752WAT     H1 3070   1.122   1.526   2.335  0.8722 -0.4923 -3.2653
  752WAT     H2 3071   0.975   1.559   2.328  0.3685 -1.2626  0.9237
  752WAT    EPW 3072   1.058   1.579   2.311 -0.1118 -0.2770 -0.4639
  753WAT      O 3073   2.617   3.064   0.852 -0.2373  0.4547  0.5937
  753WAT     H1 3074   2.701   3.018   0.847 -1.0272 -0.8583 -1.7685
  753WAT     H2 3075   2.642   3.155   0.866  1.5376 -0.0435  1.0469
  753WAT    EPW 3076   2.632   3.070   0.854 -0.1074  0.2158  0.3419
  754WAT      O 3077   2.365   0.583   3.798 -0.8820  0.3646 -0.4086
  754WAT     H1 3078   2.390   0.644   3.867  4.0701 -0.8060 -0.7559
  754WAT     H2 3079   2.398   0.623   3.717  0.9376 -1.8588 -0.8586
  754WAT    EPW 3080   2.373   0.596   3.796  0.0112 -0.0830 -0.5138
  755WAT      O 3081   0.225   1.748   3.231  0.0297  0.6576 -0.3315
  755WAT     H1 3082   0.243   1.749   3.326 -0.5616 -0.1737 -0.1981
  755WAT     H2 3083   0.138   1.710   3.224 -0.2585  1.4413 -1.1769
  755WAT    EPW 3084   0.216   1.743   3.243 -0.0863  0.6513 -0.4254
  756WAT      O 3085   1.786   4.041   2.747  0.2855 -0.0904 -0.4991
  756WAT     H1 3086   1.852   4.092   2.793  0.6214 -0.6975 -0.3002
  756WAT     H2 3087   1.829   3.957   2.728 -0.8729 -1.0722  0.9374
  756WAT    EPW 3088   1.800   4.036   2.751  0.1770 -0.3000 -0.2834
  757WAT      O 3089   0.400   1.085   2.878  0.2998  0.0612 -0.1444
  757WAT     H1 3090   0.482   1.086   2.827  1.0227  0.1101  0.9884
  757WAT     H2 3091   0.397   0.997   2.916  0.2954  0.3527  0.5424
  757WAT    EPW 3092   0.411   1.073   2.876  0.3945  0.1061  0.0956
  758WAT      O 3093   3.017   2.308   3.825  0.1202  0.0827  0.0548
  758WAT     H1 3094   3.107   2.332   3.806  0.3102 -0.7465 -0.1302
  758WAT     H2 3095   2.965   2.355   3.760  0.7866 -3.0397 -3.0117
  758WAT    EPW 3096   3.022   2.317   3.814  0.2332 -0.4385 -0.3740
  759WAT      O 3097   1.861   2.551   0.394  0.3947  0.2204 -0.2835
  759WAT     H1 3098   1.880   2.499   0.472  1.4166  0.8623 -0.0877
  759WAT     H2 3099   1.880   2.642   0.421 -2.0585  0.8315 -0.3804
  759WAT    EPW 3100   1.866   2.556   0.408  0.2059  0.3857 -0.2705
  760WAT      O 3101   2.961   3.790   2.627  0.1549 -0.0321  0.6398
  760WAT     H1 3102   2.924   3.872   2.660 -0.9944 -0.3671  0.2359
  760WAT     H2 3103   2.953   3.729   2.701 -0.1545 -0.1140  0.5416
  760WAT    EPW 3104   2.955   3.793   2.641 -0.0375 -0.0871  0.5735
  761WAT      O 3105   0.515   1.226   3.903  0.4324 -0.3761  0.1431
  761WAT     H1 3106   0.476   1.140   3.921  1.0639 -0.5690  0.6596
  761WAT     H2 3107   0.507   1.273   3.987  0.6379 -0.1537  0.0380
  761WAT    EPW 3108   0.509   1.221   3.917  0.5428 -0.3722  0.1974
  762WAT      O 3109   0.249   2.026   0.650 -0.0704  0.0970  0.2662
  762WAT     H1 3110   0.212   1.941   0.625 -0.4496 -0.0849  1.3616
  762WAT     H2 3111   0.186   2.061   0.713 -0.1447  1.4128 -0.5138
  762WAT    EPW 3112   0.236   2.019   0.655 -0.1302  0.2465  0.3078
  763WAT      O 3113   2.009   3.670   3.765 -0.1245  0.0076 -0.6182
  763WAT     H1 3114   2.087   3.699   3.812  0.2163  0.5631 -1.4894
  763WAT     H2 3115   1.936   3.700   3.818  0.2102 -1.8645  1.0180
  763WAT    EPW 3116   2.010   3.678   3.778 -0.0354 -0.1661 -0.5173
  764WAT      O 3117   0.765   1.786   2.347 -0.4157 -0.7451 -1.1807
  764WAT     H1 3118   0.849   1.823   2.371  0.2722 -2.4850 -0.7799
  764WAT     H2 3119   0.724   1.853   2.292  1.3989 -0.0279 -1.7211
  764WAT    EPW 3120   0.771   1.799   2.343 -0.0856 -0.8800 -1.1991
  765WAT      O 3121   1.167   0.335   2.729 -0.3625  0.1367 -0.2560
  765WAT     H1 3122   1.125   0.421   2.726  0.6083  0.6375  0.2876
  765WAT     H2 3123   1.260   0.354   2.744  0.0697 -0.9534 -1.4349
  765WAT    EPW 3124   1.174   0.349   2.731 -0.1775  0.0590 -0.3398
  766WAT      O 3125   2.624   2.868   3.674  0.0233 -0.1641  0.2469
  766WAT     H1 3126   2.606   2.839   3.584 -1.1387  1.0688  0.0548
  766WAT     H2 3127   2.718   2.888   3.673 -0.0158  0.0686 -0.7788
  766WAT    EPW 3128   2.634   2.867   3.662 -0.1351  0.0292  0.0863
  767WAT      O 3129   1.792   2.282   0.112  0.3875 -0.1492 -0.3058
  767WAT     H1 3130   1.860   2.345   0.090  0.0379  0.6331  0.7810
  767WAT     H2 3131   1.717   2.309   0.060  0.4981 -0.2051 -0.4964
  767WAT    EPW 3132   1.791   2.294   0.102  0.3560 -0.0534 -0.1876
  768WAT      O 3133   0.736   1.983   0.632  0.3077 -0.2417  0.4035
  768WAT     H1 3134   0.650   2.013   0.604 -0.1724 -0.3105  1.7360
  768WAT     H2 3135   0.798   2.031   0.577 -0.5518  0.6341  0.1883
  768WAT    EPW 3136   0.733   1.993   0.621  0.1310 -0.1353  0.5509
  769WAT      O 3137   3.139   0.164   1.216 -0.1630  0.0833 -0.4550
  769WAT     H1 3138   3.231   0.180   1.236  1.1163 -3.3502 -2.7216
  769WAT     H2 3139   3.098   0.147   1.301  1.7053 -0.1304  0.4525
  769WAT    EPW 3140   3.146   0.164   1.230  0.2521 -0.3977 -0.6343
  770WAT      O 3141   1.020   0.584   0.381 -0.0699 -0.1236 -0.3325
  770WAT     H1 3142   0.962   0.509   0.392  0.5954 -0.7909 -1.2023
  770WAT     H2 3143   1.108   0.546   0.380  0.2036  0.4338 -2.3936
  770WAT    EPW 3144   1.024   0.569   0.382  0.0539 -0.1381 -0.7191
  771WAT      O 3145   3.655   1.031   2.392 -0.1804 -0.2276  0.2895
  771WAT     H1 3146   3.631   0.944   2.421  0.0911 -1.2648 -2.3542
  771WAT     H2 3147   3.577   1.066   2.349 -0.1463  0.6515  0.9086
  771WAT    EPW 3148   3.642   1.024   2.390 -0.1401 -0.2485  0.0225
  772WAT      O 3149   0.938   2.129   0.801  0.3054  0.4314  0.1110
  772WAT     H1 3150   0.884   2.097   0.729  0.9373  0.1845 -0.2625
  772WAT     H2 3151   1.017   2.164   0.759  0.7193  0.2066  0.6755
  772WAT    EPW 3152   0.942   2.129   0.786  0.4433  0.3692  0.1362
  773WAT      O 3153   0.417   2.862   3.277 -0.3876  0.1351 -0.1844
  773WAT     H1 3154   0.485   2.795   3.270 -1.5045 -1.1435  0.5857
  773WAT     H2 3155   0.378   2.847   3.363 -0.4580  2.0244  0.1528
  773WAT    EPW 3156   0.421   2.851   3.287 -0.5442  0.2157 -0.0384
  774WAT      O 3157   3.565   1.999   0.208  0.2864  0.0734  0.2166
  774WAT     H1 3158   3.636   1.970   0.152  0.6530  0.0242  0.7065
  774WAT     H2 3159   3.600   1.994   0.296 -0.1696  0.4891  0.4267
  774WAT    EPW 3160   3.579   1.995   0.212  0.2746  0.1217  0.3089
  775WAT      O 3161   2.773   2.898   2.690  0.0772 -0.6242  0.7020
  775WAT     H1 3162   2.811   2.815   2.663 -2.4226 -1.7731  0.4996
  775WAT     H2 3163   2.769   2.893   2.785 -0.6182 -1.0253  0.6600
  775WAT    EPW 3164   2.777   2.887   2.699 -0.3442 -0.8287  0.6698
  776WAT      O 3165   0.170   2.682   1.487 -0.2786  0.0209 -0.0688
  776WAT     H1 3166   0.120   2.764   1.484 -1.3338 -0.5960  0.2267
  776WAT     H2 3167   0.260   2.709   1.469 -0.8211  1.0645 -1.4018
  776WAT    EPW 3168   0.175   2.696   1.484 -0.4893  0.0772 -0.2056
  777WAT      O 3169   1.070   4.050   1.308  0.7368  0.3331 -0.2494
  777WAT     H1 3170   1.024   3.996   1.244 -1.2155  1.4134  0.1661
  777WAT     H2 3171   1.080   4.135   1.264  0.5597  0.6905  0.4005
  777WAT    EPW 3172   1.065   4.054   1.293  0.4560  0.5228 -0.1089
  778WAT      O 3173   3.583   3.212   2.250 -0.0610  0.1061  0.5715
  778WAT     H1 3174   3.496   3.247   2.271  0.5271  1.5474  0.6569
  778WAT     H2 3175   3.638   3.289   2.236  1.0988 -0.7925  0.0257
  778WAT    EPW 3176   3.579   3.227   2.251  0.1695  0.1777  0.5108
  779WAT      O 3177   1.897   0.762   3.855  0.7525  0.2718  0.2840
  779WAT     H1 3178   1.865   0.829   3.916 -0.5557  0.1681 -0.2521
  779WAT     H2 3179   1.928   0.811   3.779 -1.9588  0.3033 -0.9380
  779WAT    EPW 3180   1.897   0.777   3.853  0.2223  0.2623  0.0521
  780WAT      O 3181   2.267   3.274   2.790  0.0623 -0.3665 -0.7083
  780WAT     H1 3182   2.203   3.327   2.743  1.2438  1.0813 -0.7575
  780WAT     H2 3183   2.220   3.192   2.810 -1.8157  0.6513 -0.6695
  780WAT    EPW 3184   2.252   3.270   2.787 -0.0296 -0.0413 -0.7096
  781WAT      O 3185   3.494   3.925   3.283  0.3660  0.3841  0.2723
  781WAT     H1 3186   3.557   3.987   3.245  1.8324 -1.4664 -0.4511
  781WAT     H2 3187   3.410   3.950   3.244  0.6285  2.7739  1.0927
  781WAT    EPW 3188   3.491   3.937   3.273  0.5940  0.4552  0.2851
  782WAT      O 3189   3.695   2.821   0.283 -0.1398  0.2369 -0.8113
  782WAT     H1 3190   3.636   2.746   0.286 -1.6779  1.4502  0.6218
  782WAT     H2 3191   3.781   2.783   0.264 -0.8303 -1.9040  0.0821
  782WAT    EPW 3192   3.699   2.806   0.281 -0.4337  0.1146 -0.5045
  783WAT      O 3193   2.317   0.529   2.676  0.3512  0.2301  0.3134
  783WAT     H1 3194   2.351   0.444   2.647 -0.2223 -0.0041  0.3152
  783WAT     H2 3195   2.294   0.515   2.768  0.4474  0.4498  0.3716
  783WAT    EPW 3196   2.319   0.516   2.684  0.2882  0.2282  0.3213
  784WAT      O 3197   1.111   2.970   0.662  0.0081  0.0545 -0.2811
  784WAT     H1 3198   1.127   3.062   0.641  0.2914  0.5409  1.8363
  784WAT     H2 3199   1.016   2.963   0.667 -0.0063  0.2842 -0.2076
  784WAT    EPW 3200   1.100   2.981   0.660  0.0436  0.1489  0.0079
  785WAT      O 3201   1.361   1.415   1.126  0.1528  0.0519  0.1396
  785WAT     H1 3202   1.436   1.457   1.083  2.1417 -1.3758  1.9581
  785WAT     H2 3203   1.355   1.329   1.085 -0.2436  0.0218  0.2573
  785WAT    EPW 3204   1.370   1.409   1.115  0.3629 -0.1403  0.3950
  786WAT      O 3205   3.335   4.167   3.764  0.7773  0.1962  0.6872
  786WAT     H1 3206   3.322   4.262   3.763 -0.9349 -0.0133 -0.4528
  786WAT     H2 3207   3.384   4.149   3.684 -0.6847 -0.0702 -0.1776
  786WAT    EPW 3208   3.340   4.177   3.754  0.3586  0.1334  0.4228
  787WAT      O 3209   1.486   1.125   3.963 -0.1112 -0.8085 -0.1863
  787WAT     H1 3210   1.477   1.031   3.974  0.3479 -0.5980  2.6595
  787WAT     H2 3211   1.407   1.162   4.001  0.5943  0.0234  0.5073
  787WAT    EPW 3212   1.475   1.118   3.969  0.0424 -0.6710  0.2806
  788WAT      O 3213   1.044   0.807   0.181 -0.3043 -0.1219  0.4708
  788WAT     H1 3214   1.067   0.745   0.250  1.3356  0.1440  0.1872
  788WAT     H2 3215   0.982   0.867   0.223 -0.2011 -0.6312  1.3791
  788WAT    EPW 3216   1.039   0.807   0.196 -0.0744 -0.1540  0.5532
  789WAT      O 3217   1.506   1.960   1.480 -0.6008  0.3304 -0.2272
  789WAT     H1 3218   1.497   1.885   1.539  1.2724  0.7739  0.7245
  789WAT     H2 3219   1.436   1.949   1.416 -0.5076 -2.1233 -0.0141
  789WAT    EPW 3220   1.496   1.949   1.480 -0.3414  0.0653 -0.0736
  790WAT      O 3221   1.184   3.971   0.086  0.2012  0.4170  0.0131
  790WAT     H1 3222   1.191   3.955  -0.008  1.3275  0.1291  0.1313
  790WAT     H2 3223   1.256   4.031   0.105 -0.1559  0.6443  0.6532
  790WAT    EPW 3224   1.195   3.977   0.076  0.3027  0.4090  0.1132
  791WAT      O 3225   1.237   1.578   0.898  0.1912 -0.0447  0.0491
  791WAT     H1 3226   1.189   1.558   0.817  0.1877  1.3798 -0.3364
  791WAT     H2 3227   1.232   1.498   0.950 -0.4286 -0.7475 -1.0636
  791WAT    EPW 3228   1.230   1.565   0.894  0.1090  0.0505 -0.1485
  792WAT      O 3229   0.345   0.144   2.948  0.7685 -0.1485  0.2256
  792WAT     H1 3230   0.439   0.157   2.962  0.9403 -0.0806 -0.8756
  792WAT     H2 3231   0.316   0.223   2.903  0.5170 -0.8070 -0.8137
  792WAT    EPW 3232   0.354   0.156   2.944  0.7580 -0.2264 -0.0567
  793WAT      O 3233   2.744   1.454   1.193 -0.0168 -0.0322  0.3984
  793WAT     H1 3234   2.788   1.474   1.276  0.0864  1.9288 -0.0625
  793WAT     H2 3235   2.651   1.460   1.214 -0.0323 -1.2434  0.7281
  793WAT    EPW 3236   2.738   1.458   1.207 -0.0053  0.0667  0.3811
  794WAT      O 3237   0.744   2.305   2.213 -0.3692  0.1418 -0.7673
  794WAT     H1 3238   0.737   2.370   2.143  0.2885  1.4246  0.3209
  794WAT     H2 3239   0.777   2.226   2.169  0.7386  1.1343 -1.8038
  794WAT    EPW 3240   0.748   2.303   2.198 -0.1363  0.4419 -0.7605
  795WAT      O 3241   0.811   1.990   1.244 -0.1497  0.2731 -0.0896
  795WAT     H1 3242   0.763   2.050   1.186 -0.4395  0.8209  0.7011
  795WAT     H2 3243   0.894   2.035   1.261  0.5756 -0.5556 -1.2433
  795WAT    EPW 3244   0.816   2.004   1.238 -0.0922  0.2361 -0.1375
  796WAT      O 3245   2.023   0.286   0.595 -0.0323  0.2857  0.0208
  796WAT     H1 3246   2.081   0.265   0.668  1.1695 -0.3082 -1.0662
  796WAT     H2 3247   2.000   0.201   0.557 -0.4774  0.5983 -0.4283
  796WAT    EPW 3248   2.027   0.272   0.600  0.0675  0.2486 -0.1818
  797WAT      O 3249   1.875   4.248   0.107 -0.1173  0.5841  0.2279
  797WAT     H1 3250   1.814   4.306   0.153 -0.2534  0.7424 -0.1545
  797WAT     H2 3251   1.909   4.191   0.176 -2.7856 -1.4042  0.0657
  797WAT    EPW 3252   1.872   4.249   0.122 -0.4872  0.3427  0.1561
  798WAT      O 3253   2.511   3.285   3.284 -0.1491  0.8164  0.3618
  798WAT     H1 3254   2.539   3.323   3.201  1.1332  1.0520  0.8861
  798WAT     H2 3255   2.468   3.357   3.330  0.1342  0.9897  0.3584
  798WAT    EPW 3256   2.509   3.300   3.279  0.0574  0.8703  0.4305
  799WAT      O 3257   0.181   4.267   1.683 -0.1072  0.5320 -0.0300
  799WAT     H1 3258   0.213   4.177   1.693 -1.3083  0.0641 -0.2083
  799WAT     H2 3259   0.105   4.272   1.740 -0.2002  1.3758 -0.2095
  799WAT    EPW 3260   0.175   4.256   1.692 -0.2779  0.5816 -0.0772
  800WAT      O 3261   1.868   0.348   3.385 -0.4906 -0.0417 -0.0661
  800WAT     H1 3262   1.839   0.339   3.294 -1.4438  1.8896 -0.0209
  800WAT     H2 3263   1.917   0.431   3.386  0.0204 -0.3403  1.0660
  800WAT    EPW 3264   1.871   0.358   3.373 -0.5489  0.1736  0.0892
  801WAT      O 3265   2.134   1.030   1.341 -0.1557  0.6396 -0.0776
  801WAT     H1 3266   2.115   0.939   1.367  0.0160  0.6152 -0.0338
  801WAT     H2 3267   2.062   1.081   1.378 -0.1348  0.5494  0.0888
  801WAT    EPW 3268   2.122   1.025   1.350 -0.1303  0.6245 -0.0499
  802WAT      O 3269   2.126   1.690   1.727 -0.3876 -0.0009  0.1082
  802WAT     H1 3270   2.201   1.638   1.755 -0.3264  0.4686  0.8507
  802WAT     H2 3271   2.156   1.739   1.651  0.0981  0.2883  0.4864
  802WAT    EPW 3272   2.140   1.689   1.721 -0.3155  0.0992  0.2560
  803WAT      O 3273   3.659   2.579   3.621 -0.1452  0.3706  0.2031
  803WAT     H1 3274   3.630   2.663   3.584  0.7333  0.2864 -0.7180
  803WAT     H2 3275   3.688   2.601   3.709  1.3363  1.3020 -0.4858
  803WAT    EPW 3276   3.659   2.593   3.628  0.1661  0.4823 -0.0093
  804WAT      O 3277   1.509   0.402   0.279 -0.2861  0.4189 -0.5595
  804WAT     H1 3278   1.587   0.405   0.335  0.9005  1.0236 -2.1785
  804WAT     H2 3279   1.513   0.483   0.229 -1.0585 -0.3190 -1.8478
  804WAT    EPW 3280   1.520   0.413   0.280 -0.2314  0.4013 -0.9430
  805WAT      O 3281   2.788   3.039   1.154  0.0685 -0.0785  0.3940
  805WAT     H1 3282   2.716   2.978   1.136  0.4652 -0.4659  0.1040
  805WAT     H2 3283   2.836   3.044   1.071  0.8245 -0.4281  0.8030
  805WAT    EPW 3284   2.785   3.032   1.141  0.2206 -0.1757  0.4097
  806WAT      O 3285   1.046   2.168   1.184 -0.4576 -0.1261  0.1938
  806WAT     H1 3286   1.134   2.134   1.169 -0.4111  0.4599 -1.0011
  806WAT     H2 3287   1.059   2.237   1.250  0.1242  0.5425 -0.5984
  806WAT    EPW 3288   1.060   2.173   1.191 -0.3748  0.0394 -0.0683
  807WAT      O 3289   2.155   1.366   0.243  0.4438 -0.1101  0.0091
  807WAT     H1 3290   2.060   1.377   0.253  0.0789 -1.1735 -1.6878
  807WAT     H2 3291   2.171   1.276   0.274  0.5230 -0.6658 -1.5616
  807WAT    EPW 3292   2.144   1.355   0.248  0.4061 -0.3237 -0.4219
  808WAT      O 3293   1.433   3.599   2.630 -0.1325 -0.1507 -0.1720
  808WAT     H1 3294   1.483   3.656   2.571  0.4403 -0.9210 -0.4463
  808WAT     H2 3295   1.344   3.603   2.596 -0.3114  1.3274  0.3917
  808WAT    EPW 3296   1.428   3.607   2.618 -0.0805 -0.0573 -0.1339
  809WAT      O 3297   0.525   2.634   0.902  0.4761  0.5152 -0.1074
  809WAT     H1 3298   0.504   2.545   0.929 -0.2431  0.5328 -0.5900
  809WAT     H2 3299   0.516   2.633   0.807 -1.3789  1.5463  0.0002
  809WAT    EPW 3300   0.521   2.622   0.893  0.1366  0.6535 -0.1569
  810WAT      O 3301   1.621   1.787   3.758 -0.0698  0.2635  0.3424
  810WAT     H1 3302   1.713   1.764   3.769 -0.2257 -1.3927 -1.2536
  810WAT     H2 3303   1.622   1.866   3.705  0.4276  1.1451  1.6319
  810WAT    EPW 3304   1.633   1.794   3.752 -0.0248  0.1613  0.3020
  811WAT      O 3305   3.359   1.280   0.842 -0.0566  0.1451 -0.0924
  811WAT     H1 3306   3.362   1.367   0.801  4.7643 -0.3902 -1.4158
  811WAT     H2 3307   3.304   1.228   0.782  0.4698  1.2885 -1.6414
  811WAT    EPW 3308   3.352   1.285   0.828  0.6487  0.2253 -0.4713
  812WAT      O 3309   3.512   1.533   0.317 -0.4005 -0.9512  0.2323
  812WAT     H1 3310   3.457   1.603   0.352 -0.0940 -1.2894  1.4562
  812WAT     H2 3311   3.560   1.573   0.245 -1.3840 -0.3378 -0.0962
  812WAT    EPW 3312   3.511   1.547   0.312 -0.4898 -0.9149  0.3504
  813WAT      O 3313   1.128   0.897   1.080 -0.1442  0.0816 -0.5433
  813WAT     H1 3314   1.142   0.905   1.174 -0.9103  1.4862 -0.5195
  813WAT     H2 3315   1.215   0.880   1.044 -0.0188 -1.5843  0.5031
  813WAT    EPW 3316   1.142   0.896   1.087 -0.2287  0.0471 -0.4022
  814WAT      O 3317   2.391   1.607   1.798 -0.4831  0.0153 -0.1913
  814WAT     H1 3318   2.395   1.515   1.773 -2.4779 -0.3350  0.5680
  814WAT     H2 3319   2.392   1.655   1.715 -0.5863 -0.7587 -0.6405
  814WAT    EPW 3320   2.392   1.602   1.784 -0.7598 -0.1330 -0.1504
  815WAT      O 3321   2.653   2.483   1.096  0.0829  0.2517  0.3764
  815WAT     H1 3322   2.680   2.457   1.184  0.8449 -2.5061 -0.5510
  815WAT     H2 3323   2.733   2.477   1.044 -1.0755 -2.8125 -1.3431
  815WAT    EPW 3324   2.667   2.478   1.101  0.0306 -0.5162  0.0273
  816WAT      O 3325   2.418   1.890   1.977  0.1642  0.2607 -0.5356
  816WAT     H1 3326   2.330   1.904   1.942 -0.2479  0.3291  0.5046
  816WAT     H2 3327   2.476   1.935   1.915 -0.6459  1.4035 -0.4867
  816WAT    EPW 3328   2.414   1.898   1.964  0.0030  0.4204 -0.3919
  817WAT      O 3329   1.806   4.117   3.593 -0.0323  0.1422 -0.3475
  817WAT     H1 3330   1.765   4.038   3.558 -0.8911 -0.2271  1.3918
  817WAT     H2 3331   1.749   4.188   3.565 -0.2627 -0.0611 -0.3950
  817WAT    EPW 3332   1.793   4.116   3.585 -0.1759  0.0667 -0.1243
  818WAT      O 3333   2.396   0.467   1.214 -0.2170  0.0703  0.0901
  818WAT     H1 3334   2.435   0.554   1.223  1.7523 -0.7021 -0.3733
  818WAT     H2 3335   2.458   0.419   1.158 -1.5757 -1.4381 -0.1946
  818WAT    EPW 3336   2.410   0.472   1.207 -0.1364 -0.2305 -0.0085
  819WAT      O 3337   0.042   3.479   0.023 -0.1089  0.2409  0.2257
  819WAT     H1 3338   0.094   3.445   0.095 -0.1887  0.2871  0.3044
  819WAT     H2 3339   0.057   3.416  -0.048  0.2939  0.4172  0.1512
  819WAT    EPW 3340   0.051   3.466   0.023 -0.0663  0.2703  0.2262
  820WAT      O 3341   2.661   1.520   2.260 -0.6791 -0.5305  0.0172
  820WAT     H1 3342   2.590   1.519   2.325  1.0298 -0.4990  1.9612
  820WAT     H2 3343   2.691   1.611   2.258 -0.0869 -0.7263 -0.1059
  820WAT    EPW 3344   2.655   1.532   2.269 -0.3756 -0.5521  0.2574
  821WAT      O 3345   1.054   1.233   1.114  0.3650  0.5171  0.8523
  821WAT     H1 3346   1.028   1.325   1.111 -0.5411  0.2630 -0.4650
  821WAT     H2 3347   0.980   1.187   1.075  2.1639 -0.4135 -1.7776
  821WAT    EPW 3348   1.041   1.239   1.108  0.4827  0.3609  0.3317
  822WAT      O 3349   0.203   3.271   3.453 -0.1336  0.0318  0.0074
  822WAT     H1 3350   0.152   3.221   3.517  1.1436 -0.6902  0.5174
  822WAT     H2 3351   0.293   3.268   3.488  0.5687 -0.2489 -1.7448
  822WAT    EPW 3352   0.208   3.264   3.466  0.1275 -0.1005 -0.1565
  823WAT      O 3353   0.136   1.696   3.519 -0.0087 -0.3323 -0.0826
  823WAT     H1 3354   0.166   1.647   3.595  0.4433 -1.4382 -0.9429
  823WAT     H2 3355   0.074   1.638   3.475 -0.5863  0.4574 -0.3354
  823WAT    EPW 3356   0.132   1.682   3.523 -0.0253 -0.3740 -0.2294
  824WAT      O 3357   0.011   0.995   3.249  0.0077  0.1088  0.0199
  824WAT     H1 3358  -0.024   1.081   3.271  0.6159  0.7828 -1.5093
  824WAT     H2 3359  -0.066   0.938   3.247 -0.5447  0.8411  0.0663
  824WAT    EPW 3360  -0.004   0.999   3.251  0.0151  0.2943 -0.1757
  825WAT      O 3361   2.063   4.104   0.277 -0.0381  0.1676  0.2149
  825WAT     H1 3362   2.080   4.198   0.283  0.4386  0.1072 -0.1508
  825WAT     H2 3363   2.088   4.070   0.362 -0.5320  0.4199  0.4652
  825WAT    EPW 3364   2.068   4.112   0.289 -0.0404  0.1929  0.1997
  826WAT      O 3365   2.244   0.963   2.060  0.1049 -0.2736 -0.0761
  826WAT     H1 3366   2.328   0.961   2.014  0.7696 -2.0656  1.1465
  826WAT     H2 3367   2.196   1.034   2.017  1.2991 -0.7874 -2.4433
  826WAT    EPW 3368   2.248   0.972   2.048  0.3501 -0.5777 -0.2270
  827WAT      O 3369   0.484   0.864   0.879 -0.2555  0.2572  0.1638
  827WAT     H1 3370   0.421   0.906   0.938 -0.7917  0.1623 -0.3350
  827WAT     H2 3371   0.430   0.820   0.814  0.3103  1.8158 -1.4354
  827WAT    EPW 3372   0.468   0.864   0.878 -0.2516  0.4502 -0.1129
  828WAT      O 3373   2.731   1.165   0.648  0.0496  0.7573  0.1579
  828WAT     H1 3374   2.744   1.072   0.667  0.8087  0.6356 -0.8602
  828WAT     H2 3375   2.639   1.172   0.622 -0.5587  0.6548  2.1554
  828WAT    EPW 3376   2.721   1.154   0.647  0.0695  0.7277  0.2871
  829WAT      O 3377   2.038   3.381   2.222  0.5243 -0.0765 -0.0653
  829WAT     H1 3378   1.955   3.420   2.193  1.2383  1.4563 -0.1515
  829WAT     H2 3379   2.092   3.379   2.143 -0.3354 -3.8190 -0.7414
  829WAT    EPW 3380   2.034   3.386   2.207  0.5051 -0.3680 -0.1658
  830WAT      O 3381   3.498   0.793   0.579 -0.3472  0.1711 -0.1283
  830WAT     H1 3382   3.479   0.717   0.524 -0.0921  0.7715 -1.0730
  830WAT     H2 3383   3.480   0.868   0.523  0.6498  0.7952  0.3535
  830WAT    EPW 3384   3.493   0.793   0.564 -0.1821  0.3326 -0.1893
  831WAT      O 3385   2.664   0.853   1.180 -0.0746  0.4122  0.0440
  831WAT     H1 3386   2.605   0.799   1.127 -0.0044  0.9417 -0.5805
  831WAT     H2 3387   2.667   0.808   1.265 -0.0885 -0.5163 -0.4269
  831WAT    EPW 3388   2.657   0.840   1.184 -0.0672  0.3596 -0.1005
  832WAT      O 3389   3.179   3.932   3.112  0.3658  0.1644 -0.4599
  832WAT     H1 3390   3.218   3.981   3.040 -2.0678  0.1429 -1.8937
  832WAT     H2 3391   3.207   3.842   3.098  1.5493  0.4742 -0.1702
  832WAT    EPW 3392   3.188   3.927   3.101  0.2009  0.2024 -0.6108
  833WAT      O 3393   2.693   3.045   2.936  0.2740  0.1557 -0.1401
  833WAT     H1 3394   2.648   3.057   2.852 -0.1454 -0.6952 -0.0539
  833WAT     H2 3395   2.623   3.030   2.999  0.6443 -0.7358  0.0797
  833WAT    EPW 3396   2.678   3.044   2.933  0.2675 -0.0741 -0.0997
  834WAT      O 3397   2.297   3.339   2.416  0.2762 -0.7459 -0.5997
  834WAT     H1 3398   2.351   3.388   2.354  0.8209 -0.4513  0.0888
  834WAT     H2 3399   2.234   3.403   2.448 -0.1631 -0.9597 -1.0194
  834WAT    EPW 3400   2.296   3.354   2.412  0.2901 -0.7352 -0.5642
  835WAT      O 3401   3.573   1.578   3.342  0.1055 -0.4435  0.6541
  835WAT     H1 3402   3.603   1.487   3.337 -1.3639 -0.8904 -1.2340
  835WAT     H2 3403   3.496   1.574   3.400 -1.0749 -0.7945 -0.8715
  835WAT    EPW 3404   3.567   1.565   3.349 -0.2440 -0.5487  0.2039
  836WAT      O 3405   0.077   4.014   1.889  0.1722  0.0550  0.2272
  836WAT     H1 3406   0.067   3.977   1.801  0.4444 -0.4388  0.4013
  836WAT     H2 3407   0.018   4.089   1.890 -0.7700 -0.6654  0.0326
  836WAT    EPW 3408   0.068   4.019   1.878  0.0838 -0.1051  0.2245
  837WAT      O 3409   1.009   1.781   3.642 -0.6798 -0.3058  0.3069
  837WAT     H1 3410   1.091   1.808   3.601 -0.9344 -1.0749 -0.7524
  837WAT     H2 3411   1.029   1.696   3.681 -1.3401 -1.2267 -1.2726
  837WAT    EPW 3412   1.023   1.773   3.642 -0.8005 -0.5287 -0.0411
  838WAT      O 3413   3.245   1.952   1.651  0.5566  0.2983 -0.1766
  838WAT     H1 3414   3.236   1.926   1.559 -1.2484  0.2574 -0.0400
  838WAT     H2 3415   3.338   1.970   1.662  1.0120 -0.9078 -1.6790
  838WAT    EPW 3416   3.256   1.951   1.640  0.3786  0.1338 -0.3568
  839WAT      O 3417   2.456   3.374   1.516  0.2440 -1.0114 -0.1112
  839WAT     H1 3418   2.459   3.296   1.461 -0.2288 -1.7752  0.9070
  839WAT     H2 3419   2.456   3.340   1.606  0.6518  0.1852  0.3622
  839WAT    EPW 3420   2.456   3.359   1.521  0.2354 -0.9543  0.0855
  840WAT      O 3421   0.934   3.821   3.298  0.3403  0.3006 -0.5610
  840WAT     H1 3422   0.935   3.883   3.371 -0.4503  1.6234 -1.6251
  840WAT     H2 3423   0.846   3.828   3.262  0.7445 -0.2379 -1.7026
  840WAT    EPW 3424   0.922   3.830   3.303  0.2894  0.4040 -0.8519
  841WAT      O 3425   1.765   0.042   0.732  0.0564 -0.0001 -0.2905
  841WAT     H1 3426   1.697   0.087   0.683  1.2266  1.3633 -0.7096
  841WAT     H2 3427   1.826   0.011   0.666  0.7613  0.3436  0.1951
  841WAT    EPW 3428   1.764   0.044   0.717  0.3037  0.2251 -0.2817
  842WAT      O 3429   3.097   4.220   2.067 -0.0469 -0.2370 -0.4551
  842WAT     H1 3430   3.076   4.212   2.160  0.3169  1.0260 -0.2513
  842WAT     H2 3431   3.012   4.230   2.024 -0.2622 -1.4564 -0.3468
  842WAT    EPW 3432   3.083   4.220   2.074 -0.0273 -0.2313 -0.4140
  843WAT      O 3433   0.678   3.048   2.893 -0.2201 -0.0633 -0.1878
  843WAT     H1 3434   0.649   3.093   2.813  0.7785 -0.4345 -0.7791
  843WAT     H2 3435   0.765   3.016   2.872 -0.7433 -1.9914  0.3268
  843WAT    EPW 3436   0.685   3.050   2.879 -0.1574 -0.3666 -0.1979
  844WAT      O 3437   3.299   3.033   1.123  0.1635 -0.4521  0.0719
  844WAT     H1 3438   3.269   2.945   1.146 -0.2754 -0.4274 -0.3853
  844WAT     H2 3439   3.291   3.037   1.027 -3.5453  1.3778  0.2988
  844WAT    EPW 3440   3.294   3.022   1.113 -0.3835 -0.2075  0.0415
  845WAT      O 3441   1.255   2.383   2.826 -0.5592  0.1760  0.2646
  845WAT     H1 3442   1.225   2.301   2.786 -0.4144  0.3201 -0.1442
  845WAT     H2 3443   1.350   2.383   2.814 -0.6421  0.7727 -0.4487
  845WAT    EPW 3444   1.263   2.372   2.819 -0.5510  0.2737  0.1166
  846WAT      O 3445   3.634   0.304   0.879  0.6398 -0.2386  0.2309
  846WAT     H1 3446   3.647   0.366   0.951  1.8926 -0.1244 -0.0816
  846WAT     H2 3447   3.653   0.354   0.800 -3.4408  0.4952 -0.5295
  846WAT    EPW 3448   3.638   0.319   0.878  0.2668 -0.1267  0.0894
  847WAT      O 3449   0.371   3.615   2.600 -0.3293  0.4284 -0.3245
  847WAT     H1 3450   0.444   3.643   2.656  0.0291  1.0489 -1.0760
  847WAT     H2 3451   0.351   3.693   2.547 -0.4633 -0.2356 -1.2664
  847WAT    EPW 3452   0.378   3.629   2.600 -0.2997  0.4226 -0.5478
  848WAT      O 3453   2.933   0.165   0.917  0.2900  0.7597 -0.2616
  848WAT     H1 3454   2.934   0.155   1.012  1.0204 -0.1537 -0.3462
  848WAT     H2 3455   2.925   0.259   0.902  0.7657  0.9634  0.7050
  848WAT    EPW 3456   2.932   0.176   0.928  0.4490  0.6661 -0.1453
  849WAT      O 3457   0.280   3.361   2.513  0.6881  0.0852  0.0808
  849WAT     H1 3458   0.326   3.442   2.535  0.0581  0.1870  1.1060
  849WAT     H2 3459   0.326   3.327   2.437  0.9363  1.4326 -0.4036
  849WAT    EPW 3460   0.292   3.367   2.506  0.6378  0.2763  0.1521
  850WAT      O 3461   2.787   3.211   0.576 -0.2659 -0.9194 -0.0113
  850WAT     H1 3462   2.758   3.272   0.644  1.8441 -0.6124  0.6812
  850WAT     H2 3463   2.759   3.252   0.494  1.2735  1.2025  0.4090
  850WAT    EPW 3464   2.780   3.225   0.574  0.2154 -0.5990  0.1355
  851WAT      O 3465   3.413   0.527   0.494  0.2612 -0.2148 -0.6322
  851WAT     H1 3466   3.363   0.447   0.479 -1.2974  0.4634  0.5785
  851WAT     H2 3467   3.502   0.506   0.467 -0.0630 -2.4216 -0.1482
  851WAT    EPW 3468   3.418   0.514   0.489  0.0129 -0.4165 -0.4087
  852WAT      O 3469   1.339   3.227   3.305 -0.5608  0.2124 -0.0858
  852WAT     H1 3470   1.343   3.287   3.379 -2.0172  0.0224  0.1670
  852WAT     H2 3471   1.248   3.198   3.301 -0.3566 -0.3470 -1.5103
  852WAT    EPW 3472   1.328   3.231   3.314 -0.7260  0.1135 -0.2403
  853WAT      O 3473   0.880   3.424   3.294 -0.4115  0.0207 -0.3130
  853WAT     H1 3474   0.924   3.474   3.363 -2.3895 -0.6326  1.5416
  853WAT     H2 3475   0.845   3.491   3.234  0.8585  0.6287 -0.3969
  853WAT    EPW 3476   0.881   3.439   3.295 -0.5049  0.0147 -0.0795
  854WAT      O 3477   1.781   3.144   1.414  0.0669 -0.6091 -0.4792
  854WAT     H1 3478   1.698   3.103   1.439 -0.0197 -0.2167 -0.1251
  854WAT     H2 3479   1.841   3.124   1.486 -0.5897  1.7989  0.8429
  854WAT    EPW 3480   1.778   3.136   1.426 -0.0311 -0.2398 -0.2581
  855WAT      O 3481   2.328   3.856   3.438  0.6830 -0.7637 -0.3917
  855WAT     H1 3482   2.338   3.842   3.532  0.6267 -0.8541 -0.3985
  855WAT     H2 3483   2.238   3.888   3.429 -0.2199 -3.1522 -0.6566
  855WAT    EPW 3484   2.317   3.858   3.449  0.5565 -1.0907 -0.4276
  856WAT      O 3485   0.807   4.251   1.328  0.1768  0.1156  0.4718
  856WAT     H1 3486   0.864   4.175   1.340  0.0204 -0.0193  0.3696
  856WAT     H2 3487   0.733   4.217   1.276  0.0632  0.3158  0.5026
  856WAT    EPW 3488   0.804   4.236   1.323  0.1412  0.1242  0.4624
  857WAT      O 3489   3.044   3.528   1.955 -0.2077 -0.0807  0.1987
  857WAT     H1 3490   2.993   3.585   1.898  0.7968  0.9226  0.2554
  857WAT     H2 3491   3.103   3.482   1.896 -0.0376  0.0126  0.2943
  857WAT    EPW 3492   3.045   3.530   1.940 -0.0527  0.0639  0.2188
  858WAT      O 3493   0.420   1.491   1.356 -0.5372 -0.0622  0.1612
  858WAT     H1 3494   0.500   1.484   1.408  0.5919  1.4058 -1.2706
  858WAT     H2 3495   0.386   1.578   1.377  0.0950  0.6871 -1.6435
  858WAT    EPW 3496   0.426   1.502   1.366 -0.3049  0.2302 -0.2656
  859WAT      O 3497   3.640   3.288   1.296 -0.3849  0.1110  0.1650
  859WAT     H1 3498   3.633   3.200   1.259 -2.9572  1.2531 -2.3785
  859WAT     H2 3499   3.576   3.340   1.248  0.1012  3.1234  2.4732
  859WAT    EPW 3500   3.631   3.283   1.285 -0.6600  0.6589  0.1340
  860WAT      O 3501   1.897   1.865   0.243 -0.6156 -0.3199  0.5517
  860WAT     H1 3502   1.811   1.824   0.239 -0.5425 -0.5792  1.4977
  860WAT     H2 3503   1.900   1.922   0.166 -1.5993 -0.3560  0.4781
  860WAT    EPW 3504   1.886   1.867   0.232 -0.7357 -0.3588  0.6667
  861WAT      O 3505   1.404   3.950   0.830  0.2512  0.3329 -1.1447
  861WAT     H1 3506   1.345   3.973   0.901 -0.6125  0.7569 -1.9761
  861WAT     H2 3507   1.492   3.959   0.867 -0.1930 -0.4888  0.1710
  861WAT    EPW 3508   1.408   3.954   0.844  0.0787  0.2804 -1.0809
  862WAT      O 3509   2.636   3.527   1.712  0.0039 -0.1434 -0.0760
  862WAT     H1 3510   2.647   3.474   1.633 -0.1640 -0.6431  0.2353
  862WAT     H2 3511   2.706   3.500   1.770 -0.1155 -0.0679  0.1051
  862WAT    EPW 3512   2.646   3.516   1.709 -0.0340 -0.1993 -0.0110
  863WAT      O 3513   1.082   0.204   2.219  0.1750 -0.0940 -0.0926
  863WAT     H1 3514   1.074   0.293   2.253  1.3933 -0.1421  0.3667
  863WAT     H2 3515   0.993   0.169   2.222 -0.2784  1.0162 -0.0511
  863WAT    EPW 3516   1.069   0.211   2.224  0.2759  0.0461 -0.0266
  864WAT      O 3517   2.191   3.806   3.942 -0.6527 -0.6164  0.0853
  864WAT     H1 3518   2.186   3.881   3.883  1.2828 -2.5497 -2.8118
  864WAT     H2 3519   2.110   3.809   3.992 -0.9758  2.9293 -0.4029
  864WAT    EPW 3520   2.180   3.816   3.941 -0.4401 -0.4038 -0.3612
  865WAT      O 3521   1.015   2.197   3.473  0.2811  0.6042 -0.2558
  865WAT     H1 3522   0.931   2.154   3.455 -0.3710  1.9177 -0.4996
  865WAT     H2 3523   1.075   2.126   3.492 -1.0194 -0.3446  0.4426
  865WAT    EPW 3524   1.011   2.182   3.473  0.0236  0.6523 -0.1958
  866WAT      O 3525   3.152   3.404   1.733 -0.5389  0.2489  0.3251
  866WAT     H1 3526   3.220   3.348   1.696  0.3328  0.9166  0.8699
  866WAT     H2 3527   3.090   3.417   1.661  1.1268  1.5379 -0.9491
  866WAT    EPW 3528   3.153   3.398   1.719 -0.2042  0.5070  0.2289
  867WAT      O 3529   1.894   3.453   3.290 -0.0445  0.2434  0.6111
  867WAT     H1 3530   1.946   3.433   3.212  1.3038 -0.9371  1.7436
  867WAT     H2 3531   1.843   3.374   3.307 -2.6203  1.5115 -0.6876
  867WAT    EPW 3532   1.894   3.440   3.282 -0.2064  0.2550  0.5892
  868WAT      O 3533   0.816   2.842   0.700  0.0664 -0.6222  0.7455
  868WAT     H1 3534   0.721   2.854   0.706  0.0713 -1.0817  2.0136
  868WAT     H2 3535   0.841   2.889   0.620 -1.1243  0.1248  0.7872
  868WAT    EPW 3536   0.807   2.850   0.690 -0.0900 -0.5842  0.9182
  869WAT      O 3537   1.047   1.572   0.177 -0.1400  0.1655  0.3305
  869WAT     H1 3538   1.022   1.664   0.187 -0.2308  0.1497  0.2471
  869WAT     H2 3539   0.970   1.523   0.206 -0.2074  0.1174  0.0671
  869WAT    EPW 3540   1.033   1.578   0.182 -0.1609  0.1571  0.2848
  870WAT      O 3541   2.391   3.642   0.415 -0.8478  0.1400 -0.1359
  870WAT     H1 3542   2.411   3.615   0.326  0.3625  0.7567 -0.0809
  870WAT     H2 3543   2.327   3.712   0.405 -2.3592 -1.2304 -0.3820
  870WAT    EPW 3544   2.385   3.648   0.402 -0.8875  0.0406 -0.1611
  871WAT      O 3545   2.868   0.386   2.434  0.1490  0.0032  0.4174
  871WAT     H1 3546   2.880   0.369   2.527  1.0305 -0.8544  0.1635
  871WAT     H2 3547   2.947   0.434   2.408 -0.3365  0.7043  0.2152
  871WAT    EPW 3548   2.880   0.391   2.443  0.2012 -0.0175  0.3572
  872WAT      O 3549   0.862   2.414   0.081 -0.3688  0.4358  0.2753
  872WAT     H1 3550   0.952   2.429   0.052  0.0805  1.5376  2.0595
  872WAT     H2 3551   0.811   2.410   0.000  0.7064  3.6864 -0.7143
  872WAT    EPW 3552   0.867   2.416   0.067 -0.1677  1.0099  0.3801
  873WAT      O 3553   3.515   3.568   1.783 -0.2967  0.4710 -0.5430
  873WAT     H1 3554   3.582   3.589   1.718 -0.2086  1.1957 -0.2263
  873WAT     H2 3555   3.434   3.605   1.746 -0.5473 -0.4582 -0.9561
  873WAT    EPW 3556   3.513   3.576   1.770 -0.3182  0.4440 -0.5557
  874WAT      O 3557   2.541   0.433   0.905 -0.2662 -0.4640 -0.1417
  874WAT     H1 3558   2.613   0.419   0.966  1.7140  0.2186 -2.1738
  874WAT     H2 3559   2.526   0.347   0.866  1.8246 -0.0603 -2.0699
  874WAT    EPW 3560   2.549   0.420   0.908  0.2707 -0.3207 -0.6640
  875WAT      O 3561   1.182   2.054   2.874  0.6835  0.0193 -1.0374
  875WAT     H1 3562   1.126   2.032   2.949  2.4031 -3.0904 -0.4871
  875WAT     H2 3563   1.122   2.059   2.800 -0.4803 -2.6173 -0.3754
  875WAT    EPW 3564   1.167   2.052   2.874  0.7568 -0.7386 -0.8775
  876WAT      O 3565   2.342   2.206   0.279 -0.3577 -0.3977  0.4707
  876WAT     H1 3566   2.295   2.165   0.351 -1.8556 -0.5952 -0.5973
  876WAT     H2 3567   2.387   2.134   0.235 -2.4363 -0.8793 -0.9907
  876WAT    EPW 3568   2.342   2.191   0.283 -0.8294 -0.4873  0.1371
  877WAT      O 3569   2.524   0.711   0.952  0.4772 -0.1897  0.4589
  877WAT     H1 3570   2.431   0.722   0.934  0.1996 -0.9597  1.3306
  877WAT     H2 3571   2.546   0.625   0.918  0.9178  0.0537  0.1110
  877WAT    EPW 3572   2.515   0.701   0.945  0.4987 -0.2591  0.5280
  878WAT      O 3573   0.725   0.042   1.886  0.2076  0.3090  0.4456
  878WAT     H1 3574   0.715   0.134   1.910  0.0124  0.3059  0.3743
  878WAT     H2 3575   0.803   0.013   1.934  0.0062  0.3875  0.8286
  878WAT    EPW 3576   0.734   0.050   1.896  0.1553  0.3190  0.4867
  879WAT      O 3577   2.416   2.763   2.296 -0.6418 -0.1429  0.8201
  879WAT     H1 3578   2.505   2.758   2.333 -0.3996  1.3738  0.4881
  879WAT     H2 3579   2.400   2.675   2.262  0.6977 -0.4705  0.9700
  879WAT    EPW 3580   2.426   2.751   2.296 -0.4332  0.0140  0.7961
  880WAT      O 3581   1.876   3.172   2.695  0.4314  0.6512 -0.2043
  880WAT     H1 3582   1.941   3.208   2.635 -0.4981  1.6838 -0.6266
  880WAT     H2 3583   1.820   3.246   2.717  1.2159  0.5374  2.6258
  880WAT    EPW 3584   1.878   3.186   2.690  0.4123  0.7724  0.1133
  881WAT      O 3585   1.066   1.104   2.258  0.1394 -0.6422 -0.5593
  881WAT     H1 3586   1.020   1.123   2.177  0.6176  1.2572 -0.4495
  881WAT     H2 3587   1.001   1.063   2.315 -0.4204 -1.2234 -1.6053
  881WAT    EPW 3588   1.052   1.101   2.255  0.1286 -0.4683 -0.6828
  882WAT      O 3589   1.940   3.191   3.887 -0.2831  0.6349  0.1753
  882WAT     H1 3590   1.955   3.183   3.981 -0.4490 -1.2724  0.0809
  882WAT     H2 3591   1.863   3.248   3.880 -0.2584  0.8150  1.1796
  882WAT    EPW 3592   1.932   3.198   3.898 -0.3017  0.4071  0.2953
  883WAT      O 3593   2.641   2.221   1.822  0.1687  0.6377  0.3615
  883WAT     H1 3594   2.706   2.230   1.753 -0.2325  2.5653  0.1610
  883WAT     H2 3595   2.571   2.169   1.783 -0.0636  1.7220 -0.7485
  883WAT    EPW 3596   2.640   2.216   1.808  0.0852  1.0349  0.1887
  884WAT      O 3597   2.360   4.222   3.241 -0.0388 -0.2325  0.0490
  884WAT     H1 3598   2.413   4.150   3.275 -2.2444 -1.4320  1.1314
  884WAT     H2 3599   2.273   4.207   3.276 -1.8225  0.1921 -3.7419
  884WAT    EPW 3600   2.356   4.211   3.250 -0.5649 -0.3347 -0.3083
  885WAT      O 3601   1.306   0.663   1.738  0.0666  0.4028 -0.1079
  885WAT     H1 3602   1.213   0.681   1.728 -0.3185 -0.5124  1.5293
  885WAT     H2 3603   1.347   0.749   1.743 -0.7528  0.8038 -0.2295
  885WAT    EPW 3604   1.299   0.676   1.737 -0.0923  0.3350  0.0920
  886WAT      O 3605   1.809   1.972   2.169 -0.2090  0.1323 -0.0413
  886WAT     H1 3606   1.898   1.936   2.174  0.0902  0.7954 -0.3934
  886WAT     H2 3607   1.806   2.037   2.240 -0.6047 -0.2788  0.3249
  886WAT    EPW 3608   1.821   1.976   2.179 -0.2217  0.1655 -0.0394
  887WAT      O 3609   2.162   3.679   2.313 -0.3264  0.1596 -0.4222
  887WAT     H1 3610   2.135   3.631   2.392 -0.4358  1.4540  0.3455
  887WAT     H2 3611   2.083   3.726   2.285 -0.3380 -0.4328 -1.4287
  887WAT    EPW 3612   2.148   3.679   2.320 -0.3424  0.2522 -0.4537
  888WAT      O 3613   3.668   1.672   3.090  0.0611  0.1410  0.3905
  888WAT     H1 3614   3.635   1.652   3.177  1.6511  0.5227  1.1017
  888WAT     H2 3615   3.718   1.595   3.064  2.8828  1.4971  1.4955
  888WAT    EPW 3616   3.670   1.660   3.098  0.6430  0.3702  0.6301
  889WAT      O 3617   3.524   2.041   3.775  0.1099  0.3538 -0.2791
  889WAT     H1 3618   3.548   1.983   3.703  1.5349 -0.3233  0.6769
  889WAT     H2 3619   3.538   2.129   3.741 -0.3846  0.0890 -1.1957
  889WAT    EPW 3620   3.529   2.045   3.761  0.2327  0.2296 -0.2739
  890WAT      O 3621   3.594   2.769   2.290  0.2745 -0.1646  0.8551
  890WAT     H1 3622   3.676   2.727   2.318  0.3904 -0.0375  0.7097
  890WAT     H2 3623   3.601   2.859   2.321 -0.5348 -0.5751  2.2839
  890WAT    EPW 3624   3.606   2.775   2.297  0.1830 -0.2020  1.0244
  891WAT      O 3625   1.715   2.040   2.979 -0.5399 -0.4954 -0.2596
  891WAT     H1 3626   1.707   2.069   2.888 -0.1294 -0.9159 -0.4344
  891WAT     H2 3627   1.669   2.107   3.030 -1.3386 -0.6012 -0.8302
  891WAT    EPW 3628   1.708   2.053   2.974 -0.5911 -0.5648 -0.3579
  892WAT      O 3629   1.326   0.588   1.222  0.2057 -0.1778 -0.1996
  892WAT     H1 3630   1.370   0.602   1.138 -0.2699 -0.7697 -0.5497
  892WAT     H2 3631   1.322   0.493   1.232  0.9172 -0.1172  0.8483
  892WAT    EPW 3632   1.332   0.577   1.213  0.2368 -0.2479 -0.1076
  893WAT      O 3633   3.059   3.411   2.872  0.0487 -0.0333  0.4309
  893WAT     H1 3634   3.002   3.348   2.916  0.4595 -1.2538 -0.7291
  893WAT     H2 3635   3.147   3.374   2.881  0.0694 -0.7571 -2.0397
  893WAT    EPW 3636   3.063   3.398   2.879  0.1056 -0.2898 -0.0480
  894WAT      O 3637   1.031   0.397   3.359  0.4592 -0.0753 -0.6277
  894WAT     H1 3638   1.097   0.341   3.401  0.6821 -0.6194 -1.6685
  894WAT     H2 3639   1.001   0.346   3.284  0.6263  1.1878 -1.5864
  894WAT    EPW 3640   1.036   0.383   3.355  0.5106  0.0195 -0.8914
  895WAT      O 3641   3.330   1.625   3.522 -0.1381 -0.0462  0.8120
  895WAT     H1 3642   3.397   1.679   3.563  1.9330 -1.3157 -0.7162
  895WAT     H2 3643   3.294   1.681   3.453 -1.4517  0.9914  2.2619
  895WAT    EPW 3644   3.334   1.640   3.518 -0.0382 -0.0768  0.8017
  896WAT      O 3645   1.693   1.318   1.286  0.5755 -0.4926 -0.1345
  896WAT     H1 3646   1.641   1.251   1.241 -1.3980 -0.0107  1.2885
  896WAT     H2 3647   1.742   1.361   1.216 -0.0728 -1.7232 -1.4021
  896WAT    EPW 3648   1.692   1.314   1.271  0.2297 -0.5913 -0.1140
  897WAT      O 3649   3.302   3.971   2.632 -0.3333  0.0440 -0.3470
  897WAT     H1 3650   3.363   3.971   2.706  0.7627 -1.1738 -1.1981
  897WAT     H2 3651   3.348   4.022   2.565 -0.8192  0.1768 -0.5791
  897WAT    EPW 3652   3.316   3.978   2.633 -0.2529 -0.0991 -0.4899
  898WAT      O 3653   2.147   2.198   1.892  0.5022 -0.0495 -0.2978
  898WAT     H1 3654   2.051   2.201   1.893  0.4761 -0.6981  0.5576
  898WAT     H2 3655   2.167   2.112   1.855  0.7006 -0.7919  1.4388
  898WAT    EPW 3656   2.137   2.187   1.887  0.5249 -0.2329  0.0441
  899WAT      O 3657   2.755   3.523   3.763 -0.2637 -0.3101  0.0801
  899WAT     H1 3658   2.699   3.595   3.736  0.5308  0.3542  0.1394
  899WAT     H2 3659   2.730   3.450   3.707 -0.6138  0.2169 -0.4620
  899WAT    EPW 3660   2.744   3.523   3.752 -0.2051 -0.1530  0.0164
  900WAT      O 3661   2.482   3.548   3.405 -0.1803  0.1768  0.2389
  900WAT     H1 3662   2.485   3.604   3.328 -0.6552 -0.4187 -0.2201
  900WAT     H2 3663   2.519   3.602   3.475 -0.0618  0.8425 -0.3259
  900WAT    EPW 3664   2.487   3.563   3.404 -0.2273  0.1861  0.1039
  901WAT      O 3665   0.641   1.941   2.084 -0.6668 -0.5460 -0.1584
  901WAT     H1 3666   0.649   2.004   2.013 -1.8423 -0.1221  0.0573
  901WAT     H2 3667   0.563   1.890   2.061 -2.0625  0.6540  1.5968
  901WAT    EPW 3668   0.632   1.942   2.072 -1.0059 -0.3318  0.1015
  902WAT      O 3669   2.399   1.882   1.092  0.3504  0.3139  0.2848
  902WAT     H1 3670   2.356   1.858   1.174 -0.1128 -0.9322 -0.3037
  902WAT     H2 3671   2.440   1.966   1.110  0.9083 -0.3081  2.0302
  902WAT    EPW 3672   2.399   1.890   1.105  0.3629  0.0675  0.4373
  903WAT      O 3673   3.420   4.222   0.819  0.1137  0.4881 -0.1635
  903WAT     H1 3674   3.424   4.143   0.872  0.5024 -0.1188 -1.0903
  903WAT     H2 3675   3.350   4.274   0.859  0.2725 -0.0421  0.8197
  903WAT    EPW 3676   3.411   4.219   0.831  0.1859  0.3381 -0.1560
  904WAT      O 3677   0.741   2.374   1.434  0.0643 -0.1213  0.1417
  904WAT     H1 3678   0.698   2.452   1.469  0.2133 -0.4140  1.0045
  904WAT     H2 3679   0.669   2.320   1.403 -0.1558 -0.2733  0.8855
  904WAT    EPW 3680   0.726   2.377   1.435  0.0549 -0.1800  0.3536
  905WAT      O 3681   2.561   2.808   0.075  0.3670  0.1796 -0.1537
  905WAT     H1 3682   2.608   2.743   0.127  1.0080  0.3510 -0.5065
  905WAT     H2 3683   2.579   2.891   0.119 -0.6547  0.1037  0.4417
  905WAT    EPW 3684   2.569   2.810   0.087  0.3168  0.1922 -0.1217
  906WAT      O 3685   1.638   3.381   0.451  0.1847 -0.3082 -0.4567
  906WAT     H1 3686   1.563   3.416   0.402 -0.0288 -1.4891 -1.0120
  906WAT     H2 3687   1.621   3.406   0.542 -1.3876 -1.3665 -0.4175
  906WAT    EPW 3688   1.626   3.389   0.456 -0.0509 -0.6036 -0.5248
  907WAT      O 3689   3.552   3.789   2.579 -0.5635 -0.1643 -0.0083
  907WAT     H1 3690   3.504   3.713   2.611 -0.1060  0.5059  2.5111
  907WAT     H2 3691   3.487   3.840   2.531 -0.8429 -2.1539 -1.8588
  907WAT    EPW 3692   3.537   3.786   2.577 -0.5400 -0.3383  0.0799
  908WAT      O 3693   2.831   1.781   0.581  0.2365  0.1088 -0.0417
  908WAT     H1 3694   2.869   1.738   0.658 -0.4428 -0.0704  0.1945
  908WAT     H2 3695   2.898   1.770   0.513  0.9531  0.4940  0.5809
  908WAT    EPW 3696   2.845   1.774   0.582  0.2414  0.1360  0.0716
  909WAT      O 3697   0.862   3.578   1.252  0.1033 -0.2646 -0.2610
  909WAT     H1 3698   0.917   3.507   1.287  0.0960  0.0645  0.4436
  909WAT     H2 3699   0.850   3.637   1.327 -1.6514 -0.5919 -0.2439
  909WAT    EPW 3700   0.868   3.577   1.267 -0.1291 -0.2643 -0.1658
  910WAT      O 3701   0.365   1.840   1.055  0.0052  0.3775  0.2994
  910WAT     H1 3702   0.426   1.804   1.119 -1.8393 -3.8072  0.0467
  910WAT     H2 3703   0.281   1.800   1.077 -1.1593  0.4040 -3.4209
  910WAT    EPW 3704   0.362   1.830   1.066 -0.3916 -0.1710 -0.2246
  911WAT      O 3705   1.445   0.473   1.581  0.7441  0.1409  0.7038
  911WAT     H1 3706   1.418   0.534   1.650  3.0750 -0.3404  2.1737
  911WAT     H2 3707   1.449   0.388   1.625  3.2394 -0.0104  0.3167
  911WAT    EPW 3708   1.442   0.470   1.596  1.3806  0.0575  0.8466
  912WAT      O 3709   1.705   3.349   3.881  0.3634 -0.0924 -0.4571
  912WAT     H1 3710   1.675   3.262   3.907  0.0962  0.3539  0.7641
  912WAT     H2 3711   1.735   3.390   3.962 -0.7212  1.4467 -0.7957
  912WAT    EPW 3712   1.705   3.343   3.895  0.1851  0.1695 -0.3407
  913WAT      O 3713   2.379   3.085   2.365  0.0815 -0.2005  0.0569
  913WAT     H1 3714   2.336   3.167   2.391  1.5436  0.3366  0.9097
  913WAT     H2 3715   2.326   3.017   2.405 -1.8132  0.2253 -1.5937
  913WAT    EPW 3716   2.366   3.087   2.373  0.0244 -0.0735 -0.0483
  914WAT      O 3717   0.474   1.377   1.115  0.3590  0.1345  0.4698
  914WAT     H1 3718   0.425   1.420   1.044 -1.9645 -2.7083  0.1721
  914WAT     H2 3719   0.442   1.419   1.195 -0.3144  0.3626  0.0887
  914WAT    EPW 3720   0.464   1.389   1.116 -0.0363 -0.2103  0.3803
  915WAT      O 3721   0.306   4.046   0.907  0.2381 -0.2746  0.3371
  915WAT     H1 3722   0.214   4.025   0.926  0.5971 -1.5754  0.7782
  915WAT     H2 3723   0.314   4.139   0.928 -0.7411 -0.3766  1.2555
  915WAT    EPW 3724   0.295   4.055   0.912  0.1563 -0.4596  0.5164
  916WAT      O 3725   0.512   3.199   0.204  0.4184 -0.3140  0.5009
  916WAT     H1 3726   0.554   3.212   0.119  1.1984 -2.6939  0.4401
  916WAT     H2 3727   0.507   3.286   0.242  1.7882  0.5652 -1.1977
  916WAT    EPW 3728   0.517   3.212   0.198  0.7019 -0.5120  0.2688
  917WAT      O 3729   1.116   1.477   2.757 -0.1005  0.0109 -0.0575
  917WAT     H1 3730   1.191   1.420   2.738 -0.2958  0.0049 -0.8642
  917WAT     H2 3731   1.149   1.566   2.742  0.4875  0.2254  2.1408
  917WAT    EPW 3732   1.130   1.481   2.753 -0.0487  0.0384  0.1260
  918WAT      O 3733   0.156   0.156   1.451 -0.0479 -0.0967 -0.3132
  918WAT     H1 3734   0.143   0.096   1.524  0.4343  0.3480  0.1449
  918WAT     H2 3735   0.204   0.230   1.489 -3.1364  1.9986 -0.1445
  918WAT    EPW 3736   0.161   0.158   1.466 -0.3916  0.2383 -0.2305
  919WAT      O 3737   0.874   2.956   0.424  0.1400  0.1532 -0.4717
  919WAT     H1 3738   0.960   2.975   0.388  0.2457  1.0766  0.2214
  919WAT     H2 3739   0.848   2.874   0.383  1.8597 -0.7750  0.1831
  919WAT    EPW 3740   0.882   2.947   0.414  0.3808  0.1526 -0.2940
  920WAT      O 3741   0.570   1.777   1.250 -0.2616 -0.0430 -0.2183
  920WAT     H1 3742   0.638   1.842   1.233  0.4379 -0.4185  0.9864
  920WAT     H2 3743   0.612   1.693   1.230 -0.2345 -0.3039  0.8798
  920WAT    EPW 3744   0.585   1.774   1.245 -0.1657 -0.1269  0.0854
  921WAT      O 3745   2.701   0.744   1.430  0.6165  0.1568  0.0864
  921WAT     H1 3746   2.772   0.691   1.465 -0.0928 -0.5805  0.4394
  921WAT     H2 3747   2.650   0.769   1.507 -0.6551 -1.0435 -0.3264
  921WAT    EPW 3748   2.704   0.740   1.445  0.3552 -0.0988  0.0785
  922WAT      O 3749   0.711   2.197   1.917  0.2153 -0.2517  0.0293
  922WAT     H1 3750   0.737   2.188   1.826 -4.1160 -3.6470 -1.2001
  922WAT     H2 3751   0.652   2.272   1.918 -1.2218 -1.3306 -0.4969
  922WAT    EPW 3752   0.707   2.206   1.905 -0.5455 -0.8418 -0.2022
  923WAT      O 3753   1.752   0.401   3.975 -0.6728 -0.2987  0.0250
  923WAT     H1 3754   1.845   0.384   3.986  0.0486  1.6771 -2.1555
  923WAT     H2 3755   1.714   0.316   3.952  0.5893 -1.1043  0.8403
  923WAT    EPW 3756   1.759   0.388   3.974 -0.4112 -0.1443 -0.1551
  924WAT      O 3757   1.815   3.505   1.322 -0.4946  0.5178 -0.0656
  924WAT     H1 3758   1.835   3.489   1.414 -2.3662 -1.3762  0.0836
  924WAT     H2 3759   1.858   3.433   1.275 -0.1516  1.0719 -0.6208
  924WAT    EPW 3760   1.824   3.493   1.328 -0.6962  0.3411 -0.1191
  925WAT      O 3761   2.291   2.537   2.698 -0.5666 -0.2176 -0.3521
  925WAT     H1 3762   2.240   2.591   2.759  1.2015  3.0699 -1.5464
  925WAT     H2 3763   2.374   2.583   2.689 -0.1382 -1.4009 -3.9951
  925WAT    EPW 3764   2.295   2.551   2.705 -0.2769  0.0599 -0.9901
  926WAT      O 3765   3.244   0.304   0.030  0.4616 -0.6245 -0.8171
  926WAT     H1 3766   3.153   0.289   0.006  0.4347  0.7879 -1.7205
  926WAT     H2 3767   3.240   0.372   0.098  0.9133  1.2102 -2.5423
  926WAT    EPW 3768   3.232   0.311   0.036  0.5177 -0.1963 -1.1638
  927WAT      O 3769   1.534   3.811   1.601 -0.6533 -0.3211 -0.4382
  927WAT     H1 3770   1.459   3.849   1.557 -0.8252  0.2870  0.3551
  927WAT     H2 3771   1.610   3.846   1.554 -0.8453 -1.5134 -1.7082
  927WAT    EPW 3772   1.534   3.821   1.589 -0.7013 -0.3981 -0.5011
  928WAT      O 3773   1.330   4.120   1.040  0.0008 -0.4738  0.0767
  928WAT     H1 3774   1.413   4.159   1.014 -0.2354  0.1138  0.1609
  928WAT     H2 3775   1.319   4.146   1.132 -0.6061  0.0649 -0.1375
  928WAT    EPW 3776   1.339   4.129   1.049 -0.1104 -0.3252  0.0595
  929WAT      O 3777   3.575   4.238   0.441 -0.4023  0.2543 -0.0602
  929WAT     H1 3778   3.553   4.160   0.492 -0.9674 -0.0850 -0.8107
  929WAT     H2 3779   3.518   4.235   0.364  1.2438  0.1037 -1.3501
  929WAT    EPW 3780   3.565   4.228   0.437 -0.2597  0.1897 -0.3293
  930WAT      O 3781   3.162   3.555   0.158 -0.1797 -0.7129  0.1530
  930WAT     H1 3782   3.243   3.566   0.208 -1.3542  0.3938  1.9707
  930WAT     H2 3783   3.108   3.498   0.213 -0.1461 -2.6262 -1.7076
  930WAT    EPW 3784   3.166   3.549   0.172 -0.3302 -0.8193  0.1474
  931WAT      O 3785   1.890   1.976   2.494  0.5560 -0.2058 -0.3818
  931WAT     H1 3786   1.919   2.005   2.580 -0.6510  0.5084 -0.1909
  931WAT     H2 3787   1.807   2.022   2.480  0.8520 -0.1134 -2.0352
  931WAT    EPW 3788   1.883   1.986   2.504  0.4358 -0.0994 -0.5747
  932WAT      O 3789   2.195   2.935   2.510 -0.2620 -0.4714  0.2071
  932WAT     H1 3790   2.108   2.898   2.528 -0.2300 -1.4554 -1.4183
  932WAT     H2 3791   2.252   2.897   2.577 -1.1353  0.5295  1.5641
  932WAT    EPW 3792   2.191   2.925   2.521 -0.3730 -0.4692  0.1717
  933WAT      O 3793   0.186   3.489   1.398 -0.3291  0.5582 -0.8630
  933WAT     H1 3794   0.169   3.426   1.328 -0.4667  1.0390 -1.2663
  933WAT     H2 3795   0.100   3.506   1.437 -0.3060  0.5801 -0.8206
  933WAT    EPW 3796   0.172   3.483   1.394 -0.3442  0.6245 -0.9106
  934WAT      O 3797   1.727   0.124   3.854  0.3892  0.3576  0.2460
  934WAT     H1 3798   1.709   0.105   3.762 -0.2886  1.7238  0.0751
  934WAT     H2 3799   1.734   0.038   3.895  1.4649 -0.3007 -1.2110
  934WAT    EPW 3800   1.726   0.111   3.847  0.4417  0.4510  0.0313
  935WAT      O 3801   3.667   0.404   2.933 -0.1636  0.2308 -0.2572
  935WAT     H1 3802   3.643   0.368   3.019 -0.9696 -0.2038 -0.6499
  935WAT     H2 3803   3.662   0.499   2.944 -1.0462  0.1680 -0.0250
  935WAT    EPW 3804   3.663   0.411   2.946 -0.3864  0.1652 -0.2784
  936WAT      O 3805   0.906   1.100   3.208 -0.0640 -0.2776 -0.0717
  936WAT     H1 3806   0.963   1.159   3.159 -0.8061  0.7502  0.2831
  936WAT     H2 3807   0.966   1.042   3.255  0.8142  2.1770  2.0644
  936WAT    EPW 3808   0.922   1.100   3.207 -0.0461  0.1817  0.2569
  937WAT      O 3809   1.839   0.770   2.500  0.1700 -0.7307  0.3471
  937WAT     H1 3810   1.916   0.814   2.463 -0.6179  1.2581  1.0003
  937WAT     H2 3811   1.790   0.739   2.423 -1.1669  2.8620 -0.4429
  937WAT    EPW 3812   1.843   0.772   2.485 -0.1102  0.0055  0.3291
  938WAT      O 3813   1.999   2.473   3.776  0.4418  0.0762 -0.2762
  938WAT     H1 3814   2.036   2.560   3.790  1.5137 -0.4298  0.0758
  938WAT     H2 3815   2.073   2.413   3.783 -0.1895 -0.8307 -1.0633
  938WAT    EPW 3816   2.013   2.477   3.779  0.4999 -0.1101 -0.3336
  939WAT      O 3817   2.219   2.551   2.349  0.5586  0.7612 -0.2351
  939WAT     H1 3818   2.255   2.614   2.411 -0.6873  0.2975  1.0115
  939WAT     H2 3819   2.137   2.590   2.319 -0.0468 -0.0724  0.2816
  939WAT    EPW 3820   2.213   2.564   2.353  0.3144  0.5901 -0.0025
  940WAT      O 3821   0.622   0.385   2.245 -0.2560  0.4437  0.1374
  940WAT     H1 3822   0.615   0.375   2.340  0.0818  2.5342  0.4403
  940WAT     H2 3823   0.584   0.472   2.227 -0.5612 -0.0150 -1.6731
  940WAT    EPW 3824   0.616   0.395   2.255 -0.2517  0.6589 -0.0615
  941WAT      O 3825   2.997   2.382   0.899  0.3299  0.2528  0.8383
  941WAT     H1 3826   3.023   2.366   0.989  2.1068  2.6055  0.8417
  941WAT     H2 3827   3.073   2.357   0.847 -0.5423 -0.7226 -0.0236
  941WAT    EPW 3828   3.010   2.377   0.904  0.4492  0.4344  0.7250
  942WAT      O 3829   1.954   0.830   3.092 -0.1423 -0.1780  0.6027
  942WAT     H1 3830   1.899   0.822   3.171 -0.0289  1.1834  0.8393
  942WAT     H2 3831   2.017   0.898   3.114  0.5036 -0.4595 -0.3347
  942WAT    EPW 3832   1.955   0.838   3.106 -0.0422 -0.0355  0.5103
  943WAT      O 3833   1.008   3.369   2.739  0.1820 -0.0894  0.5495
  943WAT     H1 3834   0.967   3.338   2.819  0.8600  0.5169  1.1426
  943WAT     H2 3835   1.075   3.303   2.719 -1.2979 -1.2831 -0.6335
  943WAT    EPW 3836   1.012   3.356   2.747  0.0762 -0.1669  0.4717
  944WAT      O 3837   0.765   0.410   0.998 -0.4584 -0.1205 -0.1551
  944WAT     H1 3838   0.764   0.343   0.930  1.2298 -0.3356 -0.0057
  944WAT     H2 3839   0.690   0.467   0.977 -0.3057 -0.4939 -1.8549
  944WAT    EPW 3840   0.755   0.409   0.986 -0.2156 -0.1981 -0.3596
  945WAT      O 3841   1.295   3.206   2.405 -0.1686 -0.2685  0.1831
  945WAT     H1 3842   1.245   3.150   2.464 -1.5263 -1.6464 -2.1319
  945WAT     H2 3843   1.255   3.193   2.319  1.9320  1.3471 -1.1517
  945WAT    EPW 3844   1.283   3.197   2.402 -0.0706 -0.2372 -0.2983
  946WAT      O 3845   0.900   3.250   1.253 -0.4979  0.2109 -0.2782
  946WAT     H1 3846   0.994   3.260   1.270 -0.6095  0.3671  0.2710
  946WAT     H2 3847   0.892   3.161   1.219  0.0923  0.8281 -2.1828
  946WAT    EPW 3848   0.912   3.239   1.251 -0.4348  0.3129 -0.4570
  947WAT      O 3849   3.343   0.053   0.109  0.1050 -0.0176 -0.1704
  947WAT     H1 3850   3.429   0.022   0.081  0.3197  0.3757  0.0590
  947WAT     H2 3851   3.329   0.134   0.060  1.2997  1.7236  2.1654
  947WAT    EPW 3852   3.352   0.059   0.099  0.2909  0.2639  0.1679
  948WAT      O 3853   3.598   0.525   2.481  0.3611  0.1098 -0.1673
  948WAT     H1 3854   3.584   0.519   2.387 -0.4192 -0.3023 -0.0393
  948WAT     H2 3855   3.616   0.435   2.508  1.4571  0.3547 -0.0398
  948WAT    EPW 3856   3.598   0.513   2.472  0.4027  0.0878 -0.1336
  949WAT      O 3857   2.681   3.052   3.352 -0.9225  0.2210 -0.4110
  949WAT     H1 3858   2.761   3.104   3.338 -1.1353  0.3897 -1.0159
  949WAT     H2 3859   2.610   3.115   3.343 -1.1515 -0.0413 -0.4214
  949WAT    EPW 3860   2.682   3.067   3.349 -0.9808  0.2087 -0.4921
  950WAT      O 3861   1.189   2.948   2.182  0.0620 -0.6691  0.2278
  950WAT     H1 3862   1.216   3.009   2.114  0.7862 -0.9218  0.2816
  950WAT     H2 3863   1.265   2.891   2.195 -0.0725 -0.6377  1.2286
  950WAT    EPW 3864   1.202   2.949   2.175  0.1397 -0.6983  0.3669
  951WAT      O 3865   0.770   1.525   2.299  0.2626  0.0236 -0.0642
  951WAT     H1 3866   0.755   1.616   2.325 -1.0717 -0.2315  0.1314
  951WAT     H2 3867   0.711   1.474   2.356  0.6983 -0.9314 -0.4433
  951WAT    EPW 3868   0.760   1.530   2.310  0.1441 -0.1360 -0.0884
  952WAT      O 3869   2.173   1.303   3.224  0.0721 -1.0182 -0.3598
  952WAT     H1 3870   2.257   1.343   3.204  0.2190 -1.0144  0.2417
  952WAT     H2 3871   2.155   1.329   3.314 -1.2830  0.2322 -0.9407
  952WAT    EPW 3872   2.182   1.312   3.233 -0.0872 -0.8528 -0.3571
  953WAT      O 3873   1.883   1.414   0.201 -0.3304  0.1844  0.6992
  953WAT     H1 3874   1.832   1.335   0.183 -0.6310  0.5471 -0.1075
  953WAT     H2 3875   1.842   1.482   0.146  0.2772  0.7612  0.9443
  953WAT    EPW 3876   1.871   1.413   0.191 -0.2899  0.3083  0.6251
  954WAT      O 3877   1.469   0.305   2.073 -0.4371  0.0060  0.1148
  954WAT     H1 3878   1.543   0.265   2.027  0.2171  1.3516 -0.0541
  954WAT     H2 3879   1.416   0.231   2.102  0.5970 -0.9634 -0.3922
  954WAT    EPW 3880   1.472   0.290   2.071 -0.2144  0.0556  0.0257
  955WAT      O 3881   2.692   2.559   2.894  0.2480  0.7233 -0.2453
  955WAT     H1 3882   2.633   2.610   2.837  0.4076 -0.0666 -1.1270
  955WAT     H2 3883   2.780   2.588   2.869  0.3511 -0.1596 -0.9343
  955WAT    EPW 3884   2.695   2.570   2.883  0.2827  0.5027 -0.4525
  956WAT      O 3885   0.843   1.716   0.497  0.3150 -0.0330 -0.0154
  956WAT     H1 3886   0.806   1.679   0.417  0.3764  3.9275 -2.1611
  956WAT     H2 3887   0.779   1.782   0.524  2.3513  1.8746  0.4566
  956WAT    EPW 3888   0.830   1.720   0.490  0.5917  0.7410 -0.2361
  957WAT      O 3889   0.968   0.068   0.291 -0.2255  0.4914  0.0814
  957WAT     H1 3890   1.027   0.103   0.224  0.0787 -0.5939 -0.2334
  957WAT     H2 3891   0.955  -0.023   0.267 -1.1424  0.4185  0.7912
  957WAT    EPW 3892   0.974   0.061   0.279 -0.3063  0.3387  0.1335
  958WAT      O 3893   2.391   1.429   1.378  0.5916  0.4049  0.2670
  958WAT     H1 3894   2.442   1.441   1.458  0.9418  2.0940 -0.1533
  958WAT     H2 3895   2.305   1.400   1.407  1.3624 -1.1407  1.0836
  958WAT    EPW 3896   2.386   1.427   1.392  0.7394  0.4238  0.3193
  959WAT      O 3897   1.964   1.826   2.771 -0.6936  0.6981  0.4387
  959WAT     H1 3898   1.953   1.905   2.823 -0.8367  0.7130  0.3863
  959WAT     H2 3899   1.993   1.759   2.833  1.3301  1.2529  0.1814
  959WAT    EPW 3900   1.967   1.827   2.786 -0.4456  0.7732  0.3978
  960WAT      O 3901   1.319   2.976   1.190 -0.2687 -0.9613 -0.5948
  960WAT     H1 3902   1.406   2.948   1.218 -0.4451 -0.3539  0.6481
  960WAT     H2 3903   1.310   2.942   1.101  1.6231 -0.2302 -1.1245
  960WAT    EPW 3904   1.329   2.968   1.182 -0.0424 -0.7848 -0.5007
  961WAT      O 3905   1.434   3.322   2.656 -1.1754 -0.1579 -0.0796
  961WAT     H1 3906   1.397   3.317   2.568  0.3124 -0.3386 -0.7138
  961WAT     H2 3907   1.444   3.415   2.672 -1.4853 -0.1231 -0.0802
  961WAT    EPW 3908   1.430   3.333   2.646 -1.0201 -0.1771 -0.1633
  962WAT      O 3909   2.162   2.483   0.678 -0.2302  0.0766 -0.0012
  962WAT     H1 3910   2.125   2.409   0.630  0.0676  0.1951 -0.4245
  962WAT     H2 3911   2.086   2.533   0.709 -0.4364 -0.5446  0.5120
  962WAT    EPW 3912   2.147   2.480   0.675 -0.2182  0.0103  0.0106
  963WAT      O 3913   0.771   2.988   0.079 -0.8746 -0.5245  0.0893
  963WAT     H1 3914   0.757   2.922   0.146 -0.1115 -0.9063 -0.1118
  963WAT     H2 3915   0.782   2.939  -0.002 -1.0852 -0.1065 -0.1988
  963WAT    EPW 3916   0.771   2.973   0.077 -0.8018 -0.5197  0.0247
  964WAT      O 3917   1.686   1.742   0.835 -0.2628 -0.6758 -0.0327
  964WAT     H1 3918   1.752   1.710   0.897 -1.9062 -2.5172  0.8551
  964WAT     H2 3919   1.700   1.689   0.756  1.0574  0.8589 -0.9004
  964WAT    EPW 3920   1.697   1.731   0.833 -0.3054 -0.7163 -0.0301
  965WAT      O 3921   0.875   0.465   1.338  0.1181  0.0966 -0.0758
  965WAT     H1 3922   0.932   0.433   1.268 -2.3319 -1.8592 -1.3440
  965WAT     H2 3923   0.803   0.510   1.292 -0.3852  0.8046  1.3373
  965WAT    EPW 3924   0.873   0.467   1.322 -0.2714 -0.0680 -0.0567
  966WAT      O 3925   2.456   1.890   0.314  0.6268  0.1787  0.3195
  966WAT     H1 3926   2.469   1.907   0.407  1.4978 -0.8477  0.4041
  966WAT     H2 3927   2.361   1.880   0.304  0.5156  0.4828  1.0656
  966WAT    EPW 3928   2.445   1.891   0.325  0.7270  0.0834  0.4290
  967WAT      O 3929   3.508   2.096   2.734  0.2269 -0.1188 -0.2824
  967WAT     H1 3930   3.604   2.091   2.732  0.3407  1.6353 -1.2510
  967WAT     H2 3931   3.485   2.082   2.826  1.6065  1.8161  0.4014
  967WAT    EPW 3932   3.518   2.093   2.746  0.4239  0.3677 -0.3200
  968WAT      O 3933   2.640   3.723   3.623 -0.0471  0.1696  0.8386
  968WAT     H1 3934   2.554   3.763   3.637 -0.9576 -0.5738 -1.9896
  968WAT     H2 3935   2.682   3.780   3.559  0.8368 -0.4767  0.8289
  968WAT    EPW 3936   2.634   3.736   3.617 -0.0506 -0.0137  0.4643
  969WAT      O 3937   3.315   0.071   1.952 -0.2889 -0.1179 -0.4213
  969WAT     H1 3938   3.258   0.019   2.008 -1.3078  0.3107 -1.0276
  969WAT     H2 3939   3.352   0.137   2.010 -1.0905  0.1303 -0.1761
  969WAT    EPW 3940   3.312   0.073   1.967 -0.5290 -0.0286 -0.4689
  970WAT      O 3941   1.638   0.096   3.559 -0.1797 -0.1159 -0.0336
  970WAT     H1 3942   1.671   0.102   3.470  0.6075  1.0253  0.3093
  970WAT     H2 3943   1.554   0.051   3.551  0.3932 -1.0162 -1.1997
  970WAT    EPW 3944   1.631   0.091   3.547 -0.0003 -0.0841 -0.1421
  971WAT      O 3945   0.972   2.948   2.395  0.0325 -0.2599 -0.2919
  971WAT     H1 3946   1.044   2.930   2.335 -2.5186 -1.8481 -3.1701
  971WAT     H2 3947   0.990   2.895   2.472  2.5704  0.4761 -0.3077
  971WAT    EPW 3948   0.984   2.939   2.397  0.0307 -0.3723 -0.6736
  972WAT      O 3949   1.654   1.698   0.367  0.4667 -0.1672 -0.6341
  972WAT     H1 3950   1.621   1.768   0.423  0.4333 -0.5307 -0.1944
  972WAT     H2 3951   1.576   1.654   0.334  0.4703  0.4031 -1.4400
  972WAT    EPW 3952   1.640   1.702   0.370  0.4628 -0.1399 -0.6824
  973WAT      O 3953   1.573   0.606   0.083 -0.6522 -0.0549 -0.2966
  973WAT     H1 3954   1.544   0.653   0.005  0.7341 -0.1712 -0.9071
  973WAT     H2 3955   1.630   0.537   0.050 -0.7957 -0.7129  0.7627
  973WAT    EPW 3956   1.577   0.603   0.069 -0.4883 -0.1570 -0.2374
  974WAT      O 3957   2.363   4.156   2.839 -0.3743 -0.1422  0.1313
  974WAT     H1 3958   2.288   4.148   2.897 -0.2704 -0.5779  0.2115
  974WAT     H2 3959   2.327   4.186   2.756 -0.6354 -0.3553  0.1680
  974WAT    EPW 3960   2.349   4.159   2.836 -0.3950 -0.2278  0.1467
  975WAT      O 3961   1.980   0.399   3.681  0.0899  0.4593 -0.0656
  975WAT     H1 3962   1.994   0.307   3.656  1.1584  0.1300  1.5967
  975WAT     H2 3963   2.022   0.449   3.611  3.0188 -0.4225  0.9093
  975WAT    EPW 3964   1.987   0.393   3.668  0.6171  0.2996  0.2822
  976WAT      O 3965   1.969   2.479   0.038 -0.1872 -0.3760  0.5652
  976WAT     H1 3966   2.056   2.480   0.077 -0.3601 -0.6683  0.9621
  976WAT     H2 3967   1.984   2.478  -0.057  0.2572  1.8216  0.5472
  976WAT    EPW 3968   1.982   2.479   0.030 -0.1514 -0.1247  0.6152
  977WAT      O 3969   1.077   1.502   3.723  0.4832 -0.3093 -0.0129
  977WAT     H1 3970   1.053   1.416   3.758  0.6642  0.2503  1.5820
  977WAT     H2 3971   1.170   1.493   3.701  0.6190 -0.4119  0.5718
  977WAT    EPW 3972   1.086   1.489   3.725  0.5250 -0.2491  0.2746
  978WAT      O 3973   1.890   2.313   2.838 -0.4813 -0.4573 -0.1043
  978WAT     H1 3974   1.862   2.339   2.926  2.7655  0.3018  0.8521
  978WAT     H2 3975   1.894   2.395   2.789  0.1897 -0.5106 -0.1475
  978WAT    EPW 3976   1.887   2.328   2.843  0.0354 -0.3642  0.0161
  979WAT      O 3977   2.296   2.826   1.215 -0.2180  0.2033  0.1691
  979WAT     H1 3978   2.251   2.776   1.283 -1.3393  0.4694 -0.3646
  979WAT     H2 3979   2.233   2.832   1.143  0.7247  0.4499 -0.6606
  979WAT    EPW 3980   2.282   2.820   1.215 -0.2416  0.2709 -0.0107
  980WAT      O 3981   2.162   1.236   1.902 -0.1421 -0.2261  0.3358
  980WAT     H1 3982   2.082   1.288   1.907 -0.3013 -0.5512  2.0671
  980WAT     H2 3983   2.217   1.272   1.972 -0.7516 -3.0847  2.4810
  980WAT    EPW 3984   2.159   1.248   1.912 -0.2435 -0.6460  0.8471
  981WAT      O 3985   0.459   1.704   3.429 -0.3442  0.1638 -0.7070
  981WAT     H1 3986   0.405   1.768   3.475 -0.9767  0.0439 -1.2597
  981WAT     H2 3987   0.548   1.737   3.436 -0.6038  0.8433 -0.5660
  981WAT    EPW 3988   0.463   1.717   3.436 -0.4619  0.2376 -0.7613
  982WAT      O 3989   0.274   1.054   1.008  0.5651  0.1851  0.5067
  982WAT     H1 3990   0.303   1.133   0.964  3.2017 -1.3133 -0.6666
  982WAT     H2 3991   0.293   1.069   1.100  1.3312  0.7925  0.2585
  982WAT    EPW 3992   0.280   1.066   1.014  1.0139  0.0676  0.3192
  983WAT      O 3993   0.851   1.287   0.874 -0.0400  0.0113 -0.2225
  983WAT     H1 3994   0.846   1.366   0.819  0.6484  0.1847 -0.0445
  983WAT     H2 3995   0.768   1.242   0.858 -0.0268  0.2644 -1.0959
  983WAT    EPW 3996   0.839   1.292   0.864  0.0526  0.0675 -0.3142
  984WAT      O 3997   3.587   4.005   0.619 -0.0764 -0.2939  0.2665
  984WAT     H1 3998   3.672   3.967   0.599 -1.5737 -3.3878 -0.8512
  984WAT     H2 3999   3.602   4.056   0.699  2.5991 -1.5612  0.6830
  984WAT    EPW 4000   3.600   4.006   0.627  0.0790 -0.8691  0.1740
  985WAT      O 4001   1.450   2.483   3.383  0.0388 -0.2772 -0.1549
  985WAT     H1 4002   1.449   2.419   3.312 -0.8355  0.6243 -0.9728
  985WAT     H2 4003   1.503   2.556   3.350 -0.9762  0.4620 -0.1850
  985WAT    EPW 4004   1.457   2.484   3.370 -0.2104 -0.0608 -0.2668
  986WAT      O 4005   0.521   0.559   0.932 -0.3818 -0.4404  0.3938
  986WAT     H1 4006   0.439   0.573   0.885  0.7436  0.2022 -1.4476
  986WAT     H2 4007   0.516   0.621   1.005 -1.1337  0.2560 -0.2238
  986WAT    EPW 4008   0.509   0.569   0.936 -0.3325 -0.2638  0.0695
  987WAT      O 4009   0.110   2.291   0.154 -0.1002  0.0081  0.3623
  987WAT     H1 4010   0.133   2.372   0.109  0.5862 -0.5397 -0.2925
  987WAT     H2 4011   0.044   2.318   0.219  0.5882  1.1893  0.6037
  987WAT    EPW 4012   0.104   2.305   0.157  0.0811  0.0916  0.3078
  988WAT      O 4013   0.271   2.117   1.007 -0.4706 -0.2119 -0.0561
  988WAT     H1 4014   0.203   2.149   1.065 -0.4908 -0.7202  0.2032
  988WAT     H2 4015   0.278   2.024   1.027 -0.8450 -0.5130 -1.2287
  988WAT    EPW 4016   0.263   2.109   1.017 -0.5226 -0.3186 -0.1766
  989WAT      O 4017   1.606   1.460   1.886 -0.0838 -0.3266  0.3968
  989WAT     H1 4018   1.629   1.390   1.947  0.5207  0.9570  1.7215
  989WAT     H2 4019   1.671   1.528   1.902  0.9983 -0.4627 -2.7493
  989WAT    EPW 4020   1.617   1.460   1.897  0.1387 -0.1752  0.1565
  990WAT      O 4021   0.666   4.196   3.834 -0.1140 -0.7522 -0.9005
  990WAT     H1 4022   0.662   4.284   3.798  0.5382  0.2687  1.3337
  990WAT     H2 4023   0.758   4.185   3.860 -0.1926 -2.0971 -1.1170
  990WAT    EPW 4024   0.678   4.206   3.833 -0.0384 -0.7949 -0.6344
  991WAT      O 4025   1.797   0.429   0.962  0.6682 -0.0960  0.2886
  991WAT     H1 4026   1.776   0.504   1.018 -0.4281 -0.4902  0.4255
  991WAT     H2 4027   1.827   0.362   1.024  0.7150 -0.0980  0.2637
  991WAT    EPW 4028   1.798   0.430   0.978  0.5298 -0.1482  0.3033
  992WAT      O 4029   0.193   1.221   2.459 -0.0288  0.4980  0.2183
  992WAT     H1 4030   0.125   1.205   2.394 -1.3364  2.8911  0.8919
  992WAT     H2 4031   0.159   1.181   2.540 -0.8564  1.9819  0.6373
  992WAT    EPW 4032   0.180   1.213   2.461 -0.3104  1.0093  0.3624
  993WAT      O 4033   3.058   1.176   1.530 -0.7423 -0.2513  0.3801
  993WAT     H1 4034   2.964   1.170   1.545 -0.8707 -2.2257 -0.8492
  993WAT     H2 4035   3.096   1.108   1.586 -0.2802 -0.8758 -0.6569
  993WAT    EPW 4036   3.051   1.166   1.539 -0.6983 -0.5941  0.0812
  994WAT      O 4037   3.257   2.293   3.364 -0.3194 -0.6457 -0.5730
  994WAT     H1 4038   3.246   2.226   3.297  0.5324 -1.3092 -0.0801
  994WAT     H2 4039   3.260   2.243   3.446  0.5441 -0.0274 -0.2180
  994WAT    EPW 4040   3.256   2.277   3.366 -0.0932 -0.6517 -0.4612
  995WAT      O 4041   1.343   0.169   0.290 -0.1511 -0.6096 -0.0362
  995WAT     H1 4042   1.294   0.166   0.208 -2.0244  0.8235  0.9441
  995WAT     H2 4043   1.402   0.244   0.279  0.6439 -1.3139 -0.6045
  995WAT    EPW 4044   1.344   0.179   0.278 -0.2933 -0.5135  0.0181
  996WAT      O 4045   2.524   3.835   0.822 -0.6012  0.1814  0.0490
  996WAT     H1 4046   2.567   3.758   0.859 -1.1488 -0.5362 -0.7708
  996WAT     H2 4047   2.448   3.800   0.776 -0.5996  1.1650 -0.7338
  996WAT    EPW 4048   2.520   3.820   0.821 -0.6732  0.2164 -0.1624
  997WAT      O 4049   1.181   0.249   0.631 -0.8921 -0.3613  0.1478
  997WAT     H1 4050   1.229   0.300   0.567  0.1918  2.1222  2.6849
  997WAT     H2 4051   1.094   0.290   0.634  0.0411  1.6617  2.3284
  997WAT    EPW 4052   1.176   0.261   0.623 -0.6260  0.2331  0.7701
  998WAT      O 4053   1.871   2.843   0.411 -0.4698 -0.0804  0.1661
  998WAT     H1 4054   1.887   2.896   0.332  0.3347  0.0899  0.4334
  998WAT     H2 4055   1.824   2.902   0.470 -2.0071 -0.5327 -0.5650
  998WAT    EPW 4056   1.867   2.858   0.408 -0.5664 -0.1176  0.1050
  999WAT      O 4057   1.384   2.812   1.729  0.0936  0.4500  0.3544
  999WAT     H1 4058   1.467   2.789   1.688  0.1158  0.8668  0.1667
  999WAT     H2 4059   1.338   2.866   1.664 -1.7679 -2.4405 -0.9320
  999WAT    EPW 4060   1.389   2.816   1.715 -0.1490  0.1237  0.1600
 1000WAT      O 4061   0.717   1.192   0.380  0.0424 -0.4382 -0.0410
 1000WAT     H1 4062   0.621   1.191   0.379  0.0285 -0.0005  0.5270
 1000WAT     H2 4063   0.740   1.267   0.326  0.0045  0.9032  1.7283
 1000WAT    EPW 4064   0.707   1.202   0.373  0.0356 -0.2035  0.2673
 1001WAT      O 4065   2.523   0.979   2.229 -0.4491 -0.0585 -0.1229
 1001WAT     H1 4066   2.431   1.004   2.222 -0.1493  1.4967  0.9332
 1001WAT     H2 4067   2.571   1.062   2.234  0.7764 -0.8001  1.7561
 1001WAT    EPW 4068   2.518   0.993   2.229 -0.2479  0.0488  0.2642
 1002WAT      O 4069   2.937   2.417   3.127 -0.0912  0.1861  0.3133
 1002WAT     H1 4070   2.975   2.435   3.041  1.1458  0.7932  0.9681
 1002WAT     H2 4071   2.876   2.345   3.111  0.2337  0.1845 -1.0449
 1002WAT    EPW 4072   2.934   2.409   3.113  0.1148  0.2660  0.2205
 1003WAT      O 4073   1.860   0.200   1.156 -0.8602  0.5557 -0.5432
 1003WAT     H1 4074   1.939   0.193   1.103  0.5750 -0.8069  1.6233
 1003WAT     H2 4075   1.797   0.142   1.112  0.4022 -0.8109 -0.6213
 1003WAT    EPW 4076   1.862   0.191   1.143 -0.5044  0.1958 -0.2678
 1004WAT      O 4077   0.390   1.455   2.798 -0.1835 -0.3759 -0.1108
 1004WAT     H1 4078   0.444   1.429   2.723 -0.9219 -0.0971 -0.7585
 1004WAT     H2 4079   0.452   1.482   2.865  0.4697  0.2755 -0.9633
 1004WAT    EPW 4080   0.405   1.455   2.797 -0.1947 -0.2532 -0.3087
 1005WAT      O 4081   0.738   1.198   2.375 -0.2958 -0.1570 -0.4467
 1005WAT     H1 4082   0.646   1.189   2.399 -0.0284 -1.9944  0.0677
 1005WAT     H2 4083   0.737   1.244   2.291 -1.7383 -0.8489 -0.8305
 1005WAT    EPW 4084   0.726   1.203   2.367 -0.4508 -0.4906 -0.4295
 1006WAT      O 4085   2.707   0.338   0.658 -0.2760 -0.0098 -0.2431
 1006WAT     H1 4086   2.751   0.396   0.720  0.2087 -0.5071 -0.1167
 1006WAT     H2 4087   2.776   0.308   0.599 -0.2012 -1.6686  0.6300
 1006WAT    EPW 4088   2.722   0.342   0.658 -0.2022 -0.2942 -0.1113
 1007WAT      O 4089   3.296   0.593   2.712  0.3747  0.3921  0.0635
 1007WAT     H1 4090   3.263   0.576   2.624  1.5653 -1.5896 -0.0510
 1007WAT     H2 4091   3.355   0.667   2.703  1.8623 -0.9059 -1.1653
 1007WAT    EPW 4092   3.299   0.600   2.699  0.7280 -0.0405 -0.1137
 1008WAT      O 4093   1.286   3.375   3.984  0.5867  0.3822  0.2431
 1008WAT     H1 4094   1.231   3.422   4.047  0.5417  0.9003 -0.1724
 1008WAT     H2 4095   1.344   3.443   3.948 -0.4430  0.4286 -1.4311
 1008WAT    EPW 4096   1.287   3.391   3.988  0.4450  0.4566 -0.0325
 1009WAT      O 4097   3.039   2.958   0.660  0.8681  0.0161  0.2073
 1009WAT     H1 4098   2.981   2.891   0.696  1.1231  0.2616  1.0985
 1009WAT     H2 4099   3.114   2.960   0.720  1.5765  0.0427 -0.6529
 1009WAT    EPW 4100   3.042   2.949   0.673  0.9952  0.0520  0.2114
 1010WAT      O 4101   3.057   4.089   2.317  0.2876 -0.0247  0.4364
 1010WAT     H1 4102   3.027   4.006   2.278 -0.1889  1.2517 -2.0909
 1010WAT     H2 4103   2.987   4.113   2.378  0.8469 -1.8745  1.8951
 1010WAT    EPW 4104   3.044   4.081   2.320  0.2985 -0.1003  0.2955
 1011WAT      O 4105   0.264   0.890   3.030 -0.1657 -0.5585 -0.2703
 1011WAT     H1 4106   0.182   0.928   2.998 -0.2057  1.5233  2.0345
 1011WAT     H2 4107   0.289   0.945   3.104  3.3200 -1.1336 -0.8335
 1011WAT    EPW 4108   0.257   0.902   3.036  0.2888 -0.3598 -0.0406
 1012WAT      O 4109   1.029   3.544   1.676  0.1451 -0.1961 -0.0385
 1012WAT     H1 4110   1.055   3.595   1.599 -0.0443  0.5499  0.3841
 1012WAT     H2 4111   0.934   3.535   1.667 -0.2188  1.7710  1.1891
 1012WAT    EPW 4112   1.020   3.550   1.664  0.0721  0.1618  0.1792
 1013WAT      O 4113   0.949   1.366   2.501  0.1173 -0.4630  0.0280
 1013WAT     H1 4114   0.904   1.288   2.470  1.1672 -0.7916 -0.7251
 1013WAT     H2 4115   0.989   1.340   2.584 -1.6532  0.0496  1.0840
 1013WAT    EPW 4116   0.949   1.352   2.508  0.0223 -0.4387  0.0679
 1014WAT      O 4117   0.249   3.868   3.585 -0.3992  0.3716 -0.4070
 1014WAT     H1 4118   0.228   3.792   3.531 -1.7618  0.0811  0.5049
 1014WAT     H2 4119   0.321   3.911   3.538 -0.4716 -0.7565 -1.5998
 1014WAT    EPW 4120   0.256   3.864   3.572 -0.5885  0.1845 -0.4440
 1015WAT      O 4121   2.593   1.421   3.689 -0.5379 -0.7260 -0.3248
 1015WAT     H1 4122   2.666   1.432   3.627 -1.0455  0.5671 -0.7301
 1015WAT     H2 4123   2.632   1.376   3.764  0.5282 -0.6447 -0.8091
 1015WAT    EPW 4124   2.608   1.416   3.691 -0.4642 -0.5447 -0.4421
 1016WAT      O 4125   0.438   1.374   1.859 -0.8004  0.2672  0.1554
 1016WAT     H1 4126   0.361   1.363   1.914  0.2802 -1.6464  1.4023
 1016WAT     H2 4127   0.503   1.415   1.917  0.0703 -0.9646  0.0942
 1016WAT    EPW 4128   0.437   1.378   1.874 -0.5431 -0.1477  0.3118
 1017WAT      O 4129   3.112   1.538   3.711  0.2319  0.1344  0.0713
 1017WAT     H1 4130   3.064   1.574   3.785 -0.3609  0.0769 -0.2783
 1017WAT     H2 4131   3.114   1.609   3.647  1.6311  0.5325  0.5299
 1017WAT    EPW 4132   3.106   1.552   3.712  0.3383  0.1794  0.0857
 1018WAT      O 4133   1.557   4.021   3.331  1.1752  0.1096  0.0886
 1018WAT     H1 4134   1.595   3.934   3.339 -0.3484 -0.4425  2.0816
 1018WAT     H2 4135   1.547   4.034   3.236  3.5755 -0.8555 -0.3621
 1018WAT    EPW 4136   1.561   4.011   3.319  1.2908 -0.0905  0.2921
 1019WAT      O 4137   3.100   0.324   1.891  0.0541 -0.0669 -0.3515
 1019WAT     H1 4138   3.026   0.374   1.858  0.3314  1.0378  0.6315
 1019WAT     H2 4139   3.063   0.267   1.958 -0.0532 -0.1946 -0.5201
 1019WAT    EPW 4140   3.086   0.323   1.896  0.0765  0.0620 -0.2441
 1020WAT      O 4141   2.420   0.693   1.651 -0.3222 -0.0121  0.5664
 1020WAT     H1 4142   2.513   0.708   1.666 -0.5429  0.7541  1.2728
 1020WAT     H2 4143   2.397   0.753   1.579 -0.4262  0.3746  0.9165
 1020WAT    EPW 4144   2.429   0.703   1.643 -0.3650  0.1400  0.7058
 1021WAT      O 4145   0.860   2.860   3.840  0.1322 -0.0189  0.4025
 1021WAT     H1 4146   0.910   2.941   3.851  0.7618 -0.1854 -1.0578
 1021WAT     H2 4147   0.917   2.792   3.875 -0.2727  0.1212  1.3545
 1021WAT    EPW 4148   0.874   2.862   3.846  0.1618 -0.0224  0.3354
 1022WAT      O 4149   0.068   3.620   2.472 -0.5706  0.2210  0.5866
 1022WAT     H1 4150   0.026   3.685   2.529 -1.3252 -0.5616  0.9470
 1022WAT     H2 4151   0.111   3.560   2.532 -0.8579 -0.2707  0.2996
 1022WAT    EPW 4152   0.068   3.621   2.487 -0.7080  0.0529  0.5963
 1023WAT      O 4153   0.590   3.192   2.060  0.1067  0.3384 -0.1751
 1023WAT     H1 4154   0.542   3.130   2.005  0.1281  0.5716 -0.4606
 1023WAT     H2 4155   0.525   3.225   2.123 -0.1310  0.7167 -0.6137
 1023WAT    EPW 4156   0.575   3.188   2.061  0.0782  0.4190 -0.2706
 1024WAT      O 4157   1.824   3.474   0.125  0.2731  0.0851 -0.3121
 1024WAT     H1 4158   1.730   3.483   0.142 -0.2157 -0.6886 -2.2707
 1024WAT     H2 4159   1.853   3.563   0.105 -0.1780  0.2430 -0.2851
 1024WAT    EPW 4160   1.815   3.487   0.125  0.1491  0.0039 -0.5668
 1025WAT      O 4161   2.301   4.132   2.206 -0.3047 -0.2893 -0.3274
 1025WAT     H1 4162   2.238   4.105   2.139  1.5084 -1.8265 -1.5223
 1025WAT     H2 4163   2.268   4.093   2.287 -0.1508 -2.3519 -1.2018
 1025WAT    EPW 4164   2.288   4.124   2.208 -0.0453 -0.7641 -0.6003
 1026WAT      O 4165   2.320   1.644   2.155  0.1804  0.2577 -0.1532
 1026WAT     H1 4166   2.342   1.707   2.086 -1.3018  1.7586  0.6783
 1026WAT     H2 4167   2.231   1.666   2.180  0.5264 -0.5346  1.9554
 1026WAT    EPW 4168   2.311   1.655   2.149  0.0305  0.3511  0.2346
 1027WAT      O 4169   2.819   3.465   2.104  0.1837  0.0698  0.0888
 1027WAT     H1 4170   2.899   3.463   2.051  0.6741  1.3023  0.7215
 1027WAT     H2 4171   2.780   3.379   2.092  2.1490 -0.9603  0.5928
 1027WAT    EPW 4172   2.825   3.454   2.096  0.5076  0.0965  0.2387
 1028WAT      O 4173   2.962   2.477   3.544 -0.1217 -0.0954 -0.2016
 1028WAT     H1 4174   2.942   2.383   3.549  0.4831 -0.1803  1.0091
 1028WAT     H2 4175   3.023   2.485   3.471 -1.1669 -0.4404 -1.1493
 1028WAT    EPW 4176   2.967   2.465   3.535 -0.1798 -0.1521 -0.1669
 1029WAT      O 4177   1.634   1.915   0.074 -0.2190 -0.0405  0.4464
 1029WAT     H1 4178   1.609   1.948   0.161 -1.1179  0.7274 -0.0895
 1029WAT     H2 4179   1.552   1.909   0.026  0.1809 -1.1545 -0.1391
 1029WAT    EPW 4180   1.620   1.919   0.079 -0.2848 -0.0862  0.2985
 1030WAT      O 4181   0.585   1.656   0.372  0.6208 -0.1284  0.4695
 1030WAT     H1 4182   0.595   1.745   0.339 -0.9564 -0.0836  0.0047
 1030WAT     H2 4183   0.545   1.666   0.458  0.6277 -0.3725  0.5032
 1030WAT    EPW 4184   0.581   1.669   0.379  0.4137 -0.1547  0.4126
 1031WAT      O 4185   0.959   0.664   2.032 -0.1003 -0.5029  0.3677
 1031WAT     H1 4186   0.973   0.731   2.100  1.0463 -1.2905  0.9432
 1031WAT     H2 4187   0.966   0.581   2.078  0.0290 -1.0448 -0.5997
 1031WAT    EPW 4188   0.962   0.662   2.047  0.0680 -0.6783  0.3160
 1032WAT      O 4189   2.571   2.481   1.788  0.0329  0.0326  0.1837
 1032WAT     H1 4190   2.607   2.392   1.791 -0.7031 -0.2471  1.4438
 1032WAT     H2 4191   2.484   2.473   1.825 -0.0962  1.2678  0.1965
 1032WAT    EPW 4192   2.565   2.468   1.793 -0.0812  0.1586  0.3516
 1033WAT      O 4193   0.873   1.643   1.948 -0.2843 -0.0727 -0.1151
 1033WAT     H1 4194   0.933   1.703   1.991 -0.3606 -0.3117  0.3231
 1033WAT     H2 4195   0.815   1.700   1.897  0.7531  0.1207 -1.1152
 1033WAT    EPW 4196   0.873   1.659   1.947 -0.1575 -0.0787 -0.1892
 1034WAT      O 4197   0.003   1.305   0.376 -0.3942  0.2836 -0.1072
 1034WAT     H1 4198  -0.072   1.245   0.378 -0.5117  0.3157 -1.6390
 1034WAT     H2 4199  -0.036   1.392   0.366 -0.1765  0.4020  0.0701
 1034WAT    EPW 4200  -0.012   1.308   0.375 -0.3810  0.3034 -0.2858
 1035WAT      O 4201   1.403   1.868   0.838 -0.2212  0.1147  0.0098
 1035WAT     H1 4202   1.360   1.835   0.917 -0.6799  1.4836  0.3660
 1035WAT     H2 4203   1.415   1.791   0.783 -2.4640 -0.4367  0.2168
 1035WAT    EPW 4204   1.399   1.853   0.841 -0.5775  0.2225  0.0841
 1036WAT      O 4205   2.170   2.289   3.886 -0.1323 -0.0574  0.2612
 1036WAT     H1 4206   2.144   2.197   3.891 -1.6164  0.3610  0.8332
 1036WAT     H2 4207   2.179   2.317   3.977  1.3564  0.1182  0.0918
 1036WAT    EPW 4208   2.168   2.280   3.899 -0.1317  0.0209  0.3143
 1037WAT      O 4209   3.263   1.396   1.318 -0.5166  0.3575  0.1699
 1037WAT     H1 4210   3.292   1.305   1.322 -0.6731  0.2799 -0.3871
 1037WAT     H2 4211   3.300   1.436   1.397 -2.8538 -0.8753  2.0639
 1037WAT    EPW 4212   3.272   1.389   1.329 -0.8455  0.1847  0.3463
 1038WAT      O 4213   1.370   0.690   2.920 -0.1623  0.2919 -0.0063
 1038WAT     H1 4214   1.400   0.751   2.986  0.9555 -0.3652  0.1087
 1038WAT     H2 4215   1.399   0.604   2.951  1.1660  0.0590 -1.7611
 1038WAT    EPW 4216   1.378   0.686   2.933  0.1603  0.1745 -0.2226
 1039WAT      O 4217   0.144   0.957   2.185 -0.1240  0.3413  0.5313
 1039WAT     H1 4218   0.227   0.999   2.208 -0.1082  0.6524 -0.0459
 1039WAT     H2 4219   0.086   0.977   2.258  0.3299  0.0615  0.9726
 1039WAT    EPW 4220   0.148   0.965   2.197 -0.0620  0.3454  0.5134
 1040WAT      O 4221   2.827   1.847   0.062  0.3369  0.4137 -0.5087
 1040WAT     H1 4222   2.890   1.796   0.012 -0.2126  0.4592 -1.2780
 1040WAT     H2 4223   2.778   1.896  -0.004  2.6131  4.1569  0.2444
 1040WAT    EPW 4224   2.828   1.847   0.047  0.5647  0.9134 -0.5108
 1041WAT      O 4225   2.700   0.872   3.764 -0.1671  0.2198 -0.1708
 1041WAT     H1 4226   2.700   0.836   3.852  0.4374  0.2796 -0.1371
 1041WAT     H2 4227   2.627   0.933   3.762 -1.0875 -0.8530 -0.1687
 1041WAT    EPW 4228   2.691   0.875   3.775 -0.2088  0.0862 -0.1661
 1042WAT      O 4229   1.578   1.670   1.221 -0.4204 -0.1683  0.1386
 1042WAT     H1 4230   1.658   1.617   1.213 -0.7988 -0.5714 -1.4856
 1042WAT     H2 4231   1.597   1.732   1.292  1.4405 -0.0823 -0.3712
 1042WAT    EPW 4232   1.591   1.671   1.229 -0.2249 -0.2101 -0.1428
 1043WAT      O 4233   1.835   1.690   2.339 -0.3068 -0.3297 -0.1566
 1043WAT     H1 4234   1.750   1.647   2.349 -0.9016  0.6749 -0.7452
 1043WAT     H2 4235   1.814   1.781   2.320  0.9200  0.8354  3.3152
 1043WAT    EPW 4236   1.821   1.696   2.338 -0.2235 -0.0435  0.2237
 1044WAT      O 4237   3.199   1.127   2.528 -0.5357 -0.0132  0.2277
 1044WAT     H1 4238   3.267   1.079   2.576 -2.4877  0.2329  3.5114
 1044WAT     H2 4239   3.197   1.086   2.441  3.5059 -0.2126  0.0389
 1044WAT    EPW 4240   3.208   1.116   2.523 -0.2601 -0.0070  0.6359
 1045WAT      O 4241   0.722   2.661   2.265  0.0844  0.5641  0.3233
 1045WAT     H1 4242   0.809   2.644   2.302 -0.2035 -1.5840  0.1489
 1045WAT     H2 4243   0.667   2.591   2.301 -0.3495 -1.3789 -3.6135
 1045WAT    EPW 4244   0.726   2.649   2.275 -0.0108  0.0245 -0.2189
 1046WAT      O 4245   2.620   1.614   1.974  0.0057 -0.1468 -0.2923
 1046WAT     H1 4246   2.609   1.605   2.069  0.1581  0.4942 -0.2097
 1046WAT     H2 4247   2.532   1.626   1.940 -0.2916 -2.3734 -0.4762
 1046WAT    EPW 4248   2.607   1.614   1.982 -0.0134 -0.3559 -0.3056
 1047WAT      O 4249   0.957   3.578   0.888  0.0829  0.2149 -0.1003
 1047WAT     H1 4250   0.876   3.628   0.892  0.9494  1.6199  0.6080
 1047WAT     H2 4251   0.936   3.495   0.931 -0.2080  1.7097  2.8839
 1047WAT    EPW 4252   0.944   3.574   0.894  0.1588  0.5973  0.3867
 1048WAT      O 4253   1.193   1.512   0.407 -0.0901 -0.5720 -0.7197
 1048WAT     H1 4254   1.196   1.596   0.452 -0.1419 -0.9115 -0.0756
 1048WAT     H2 4255   1.150   1.531   0.323  1.0952  0.2956 -1.1488
 1048WAT    EPW 4256   1.187   1.525   0.402  0.0594 -0.5023 -0.6914
 1049WAT      O 4257   1.969   3.092   3.413  0.3990  0.0888  0.1137
 1049WAT     H1 4258   1.998   3.139   3.491 -1.0166 -0.9822  1.3259
 1049WAT     H2 4259   1.889   3.138   3.386  1.4676  1.1615 -1.4366
 1049WAT    EPW 4260   1.962   3.104   3.420  0.3532  0.0890  0.0691
 1050WAT      O 4261   3.669   3.478   3.378 -0.4080  0.1692  0.0494
 1050WAT     H1 4262   3.716   3.421   3.318  1.3584  1.8954 -0.3033
 1050WAT     H2 4263   3.689   3.443   3.465  0.2918 -0.0371 -0.1872
 1050WAT    EPW 4264   3.678   3.466   3.382 -0.0827  0.3697 -0.0283
 1051WAT      O 4265   3.447   0.619   0.792  0.1247  0.3539 -0.5056
 1051WAT     H1 4266   3.471   0.655   0.707  1.7138 -0.7386 -0.5689
 1051WAT     H2 4267   3.441   0.525   0.777  0.1460  0.1755  0.5229
 1051WAT    EPW 4268   3.449   0.611   0.779  0.3371  0.1863 -0.3783
 1052WAT      O 4269   1.698   0.889   2.988 -0.1117  0.1987  0.2792
 1052WAT     H1 4270   1.788   0.889   3.022  0.1432 -0.7394 -0.3627
 1052WAT     H2 4271   1.667   0.800   3.005 -0.8563  0.4637  0.3113
 1052WAT    EPW 4272   1.706   0.877   2.995 -0.1763  0.1100  0.1987
 1053WAT      O 4273   1.036   2.000   1.476 -0.0225 -0.0817  0.1020
 1053WAT     H1 4274   1.085   1.973   1.399 -0.3355 -0.2709 -0.0285
 1053WAT     H2 4275   1.066   1.942   1.546 -1.4171 -1.4466 -0.3961
 1053WAT    EPW 4276   1.046   1.989   1.475 -0.2477 -0.2867  0.0191
 1054WAT      O 4277   2.985   4.092   1.714  0.3591  0.2405 -0.2377
 1054WAT     H1 4278   3.038   4.012   1.715  0.3650  0.2416  1.4097
 1054WAT     H2 4279   2.979   4.115   1.621  2.5487 -0.2243 -0.5562
 1054WAT    EPW 4280   2.991   4.085   1.702  0.6487  0.1794 -0.0624
 1055WAT      O 4281   0.370   3.886   2.503  0.0656  0.1420 -1.0063
 1055WAT     H1 4282   0.379   3.896   2.409 -0.0231  1.0757 -0.9270
 1055WAT     H2 4283   0.295   3.941   2.525 -0.6765 -1.0185 -0.5525
 1055WAT    EPW 4284   0.361   3.894   2.494 -0.0440  0.1121 -0.9360
 1056WAT      O 4285   2.313   3.073   3.258 -0.5595  0.4023  0.2013
 1056WAT     H1 4286   2.303   3.162   3.223  1.0804  0.2374 -0.8258
 1056WAT     H2 4287   2.362   3.085   3.339  0.5468  0.4101 -0.4374
 1056WAT    EPW 4288   2.318   3.086   3.264 -0.1973  0.3815 -0.0184
 1057WAT      O 4289   2.783   2.266   1.567  0.0565 -0.1672  0.0229
 1057WAT     H1 4290   2.794   2.342   1.510 -1.3256 -1.0511 -1.4991
 1057WAT     H2 4291   2.870   2.224   1.566  0.1853  0.0850 -1.0810
 1057WAT    EPW 4292   2.796   2.270   1.559 -0.1088 -0.2505 -0.3235
 1058WAT      O 4293   3.404   3.758   0.521  0.1759 -0.1535  0.4241
 1058WAT     H1 4294   3.458   3.716   0.589 -0.4881  1.4941  2.0501
 1058WAT     H2 4295   3.339   3.808   0.570 -0.1008  1.4106 -1.4496
 1058WAT    EPW 4296   3.403   3.759   0.536  0.0518  0.2701  0.3915
 1059WAT      O 4297   1.411   0.283   1.778  0.4467 -0.2096  0.7261
 1059WAT     H1 4298   1.487   0.265   1.835 -0.2631  0.3551  1.8766
 1059WAT     H2 4299   1.350   0.330   1.833 -0.4474  0.0126 -0.4145
 1059WAT    EPW 4300   1.413   0.287   1.793  0.2351 -0.1059  0.7274
 1060WAT      O 4301   2.709   2.407   3.713  0.1133  0.2782 -0.4188
 1060WAT     H1 4302   2.634   2.382   3.768  1.5725  1.8656  2.5142
 1060WAT     H2 4303   2.726   2.498   3.736  1.7153  0.5698 -2.5356
 1060WAT    EPW 4304   2.701   2.416   3.723  0.5170  0.5260 -0.3111
 1061WAT      O 4305   0.868   2.508   1.057  0.6449 -0.2729  0.3381
 1061WAT     H1 4306   0.953   2.481   1.024 -0.0920 -0.3828 -1.5744
 1061WAT     H2 4307   0.850   2.591   1.014 -0.1013 -0.1145  0.9316
 1061WAT    EPW 4308   0.877   2.515   1.047  0.4493 -0.2665  0.1642
 1062WAT      O 4309   0.444   1.112   3.275 -0.4669  0.5876 -0.3572
 1062WAT     H1 4310   0.509   1.055   3.233 -1.5922 -0.7199 -0.4088
 1062WAT     H2 4311   0.480   1.128   3.362  1.6104  2.8441 -1.4969
 1062WAT    EPW 4312   0.458   1.106   3.281 -0.3413  0.7128 -0.5143
 1063WAT      O 4313   3.081   2.368   1.830  0.1763 -0.2579  0.0794
 1063WAT     H1 4314   3.073   2.462   1.850  0.5432 -0.5601  1.8170
 1063WAT     H2 4315   3.159   2.363   1.773 -0.1757  0.5320 -0.4959
 1063WAT    EPW 4316   3.090   2.380   1.825  0.1782 -0.1936  0.2327
 1064WAT      O 4317   0.624   3.784   2.002 -0.5624  0.2039 -0.2393
 1064WAT     H1 4318   0.709   3.827   2.007 -1.0754  1.1568  0.8276
 1064WAT     H2 4319   0.638   3.699   2.043 -0.3207  0.7146  0.7700
 1064WAT    EPW 4320   0.637   3.778   2.008 -0.5982  0.3969  0.0345
 1065WAT      O 4321   1.583   3.228   2.338 -0.0521  0.1669 -0.6804
 1065WAT     H1 4322   1.494   3.211   2.369  0.1516  2.0888  1.1006
 1065WAT     H2 4323   1.626   3.142   2.343 -1.0972 -0.3114  0.8890
 1065WAT    EPW 4324   1.577   3.214   2.342 -0.1631  0.3573 -0.2385
 1066WAT      O 4325   1.995   2.571   2.983 -0.8186 -0.2450  0.1999
 1066WAT     H1 4326   2.043   2.493   3.013  0.1322  0.5461  0.7932
 1066WAT     H2 4327   2.018   2.580   2.891  2.1977  1.4987  1.0142
 1066WAT    EPW 4328   2.004   2.562   2.975 -0.2954  0.0894  0.3855
 1067WAT      O 4329   2.411   0.530   1.880 -0.1251 -0.1362  0.1304
 1067WAT     H1 4330   2.412   0.608   1.824  0.7052 -0.8417 -0.8940
 1067WAT     H2 4331   2.417   0.457   1.818  0.3068 -0.9646  1.1303
 1067WAT    EPW 4332   2.412   0.530   1.864  0.0414 -0.3385  0.1271
 1068WAT      O 4333   2.837   3.616   2.445  0.2450  0.0957 -0.1642
 1068WAT     H1 4334   2.756   3.667   2.443  0.2954  0.3175  1.7201
 1068WAT     H2 4335   2.894   3.665   2.505  1.0240 -1.1411  0.1321
 1068WAT    EPW 4336   2.834   3.629   2.453  0.3544 -0.0381  0.1234
 1069WAT      O 4337   3.493   0.740   2.257  0.0361 -0.0613 -0.3339
 1069WAT     H1 4338   3.417   0.774   2.210 -1.6125 -1.1402  1.3712
 1069WAT     H2 4339   3.486   0.779   2.344  1.5469 -0.0716 -0.1810
 1069WAT    EPW 4340   3.482   0.749   2.262  0.0179 -0.2049 -0.0889
 1070WAT      O 4341   2.917   1.910   1.898 -0.5100 -0.6230 -0.6323
 1070WAT     H1 4342   2.919   1.825   1.942  1.6554  0.6225  1.9361
 1070WAT     H2 4343   3.000   1.914   1.850  0.3595  0.7393  0.8859
 1070WAT    EPW 4344   2.928   1.900   1.897 -0.1097 -0.2791 -0.0933
 1071WAT      O 4345   0.057   2.656   1.767  0.5483  0.2199  0.0178
 1071WAT     H1 4346   0.073   2.655   1.673  1.8588 -2.7403  0.1684
 1071WAT     H2 4347   0.125   2.713   1.803 -0.0473  1.4765 -0.8155
 1071WAT    EPW 4348   0.068   2.663   1.759  0.6426 -0.0048 -0.0722
 1072WAT      O 4349   1.272   0.958   2.461  0.1420 -0.1011  0.1694
 1072WAT     H1 4350   1.281   1.049   2.433  1.6436  0.4620  2.1621
 1072WAT     H2 4351   1.239   0.912   2.384  0.0329  1.9891 -1.1236
 1072WAT    EPW 4352   1.269   0.964   2.447  0.3257  0.2489  0.2617
 1073WAT      O 4353   3.465   0.947   0.794  0.2470  0.4133 -0.1208
 1073WAT     H1 4354   3.529   1.017   0.802  0.2506  0.2104  2.9307
 1073WAT     H2 4355   3.497   0.892   0.723  0.8654  2.8063 -1.8048
 1073WAT    EPW 4356   3.477   0.949   0.786  0.3290  0.7021  0.0595
 1074WAT      O 4357   1.424   3.966   0.390 -0.3991 -0.0387 -0.3858
 1074WAT     H1 4358   1.438   3.874   0.411 -2.3588  0.1584  2.2379
 1074WAT     H2 4359   1.479   4.014   0.451 -0.6131  0.5539 -0.6394
 1074WAT    EPW 4360   1.433   3.960   0.401 -0.6858  0.0655 -0.0732
 1075WAT      O 4361   2.183   3.340   1.504  0.3738  0.0986  0.7391
 1075WAT     H1 4362   2.177   3.355   1.410  0.2562  3.3034  1.1441
 1075WAT     H2 4363   2.274   3.361   1.526 -0.1615  1.7498  1.5967
 1075WAT    EPW 4364   2.194   3.345   1.495  0.2877  0.7391  0.9056
 1076WAT      O 4365   2.936   2.649   2.630  0.1519 -0.6678 -0.4996
 1076WAT     H1 4366   2.980   2.605   2.703 -0.1018 -1.0575 -0.5774
 1076WAT     H2 4367   3.004   2.657   2.563  1.1252  1.9398  0.6415
 1076WAT    EPW 4368   2.951   2.644   2.631  0.2468 -0.3753 -0.3594
 1077WAT      O 4369   1.174   0.625   3.342  0.4327 -0.5659 -0.9548
 1077WAT     H1 4370   1.106   0.684   3.311 -0.1591 -0.5510  0.3212
 1077WAT     H2 4371   1.131   0.540   3.349 -0.1633 -0.1323  1.9963
 1077WAT    EPW 4372   1.160   0.622   3.339  0.2760 -0.5068 -0.3973
 1078WAT      O 4373   1.928   3.255   1.187  0.2482 -0.3240  0.2138
 1078WAT     H1 4374   1.865   3.215   1.248 -1.7284  1.2790 -0.6878
 1078WAT     H2 4375   1.932   3.194   1.114 -3.0154  1.0859 -1.3167
 1078WAT    EPW 4376   1.920   3.242   1.186 -0.4430  0.0734 -0.1070
 1079WAT      O 4377   1.436   1.378   0.710  0.1796  0.2820  0.4986
 1079WAT     H1 4378   1.383   1.313   0.757 -0.3113  1.4191  1.5563
 1079WAT     H2 4379   1.505   1.403   0.772 -0.1872  1.4492  0.4560
 1079WAT    EPW 4380   1.438   1.372   0.724  0.0665  0.5859  0.6325
 1080WAT      O 4381   3.110   0.597   1.020  0.1402  0.0262  0.3525
 1080WAT     H1 4382   3.187   0.654   1.017 -0.1227  0.3748  0.0391
 1080WAT     H2 4383   3.093   0.585   1.114  0.7444 -0.2891  0.4206
 1080WAT    EPW 4384   3.118   0.603   1.032  0.1852  0.0306  0.3202
 1081WAT      O 4385   2.322   0.290   3.504 -0.3138  0.0218 -0.0766
 1081WAT     H1 4386   2.321   0.197   3.485  1.5031  0.0664 -0.5909
 1081WAT     H2 4387   2.306   0.295   3.599 -0.1177 -0.8319  0.0089
 1081WAT    EPW 4388   2.320   0.279   3.514 -0.0483 -0.0849 -0.1331
 1082WAT      O 4389   0.218   3.795   1.417 -0.1799 -0.2066 -0.3566
 1082WAT     H1 4390   0.161   3.821   1.489  2.2131  0.4708  1.4068
 1082WAT     H2 4391   0.218   3.699   1.420 -0.4249 -0.1900  0.2685
 1082WAT    EPW 4392   0.211   3.785   1.427  0.1034 -0.1151 -0.0416
 1083WAT      O 4393   3.509   0.227   2.601  1.0131 -0.0421  0.1318
 1083WAT     H1 4394   3.453   0.163   2.557  0.3590  0.5502  0.0884
 1083WAT     H2 4395   3.454   0.263   2.670  1.3294  0.5709  0.0675
 1083WAT    EPW 4396   3.494   0.223   2.604  0.9686  0.1169  0.1176
 1084WAT      O 4397   0.670   1.873   3.570 -0.1800 -0.0967 -0.0508
 1084WAT     H1 4398   0.608   1.900   3.638 -0.6914 -0.7600 -0.2462
 1084WAT     H2 4399   0.714   1.797   3.608  0.4608  0.3174  0.0514
 1084WAT    EPW 4400   0.668   1.867   3.584 -0.1629 -0.1295 -0.0631
 1085WAT      O 4401   2.752   0.037   3.337  0.4079  0.0101 -0.8304
 1085WAT     H1 4402   2.745   0.077   3.250 -1.4593 -1.0099 -1.1927
 1085WAT     H2 4403   2.695  -0.040   3.333  2.5002 -1.7232  0.3988
 1085WAT    EPW 4404   2.744   0.032   3.325  0.4376 -0.3531 -0.7161
 1086WAT      O 4405   2.998   0.874   1.183  0.0421 -0.1322  0.1368
 1086WAT     H1 4406   3.087   0.871   1.219  0.7636  3.2089 -1.0238
 1086WAT     H2 4407   2.997   0.805   1.117  2.1645  0.4270 -0.5569
 1086WAT    EPW 4408   3.009   0.865   1.179  0.4172  0.3822 -0.1078
 1087WAT      O 4409   0.624   4.255   0.261 -0.3853  0.0378 -0.0264
 1087WAT     H1 4410   0.640   4.161   0.255 -1.0913 -0.0602 -0.5128
 1087WAT     H2 4411   0.661   4.280   0.345  2.8121 -0.0456 -1.2484
 1087WAT    EPW 4412   0.631   4.246   0.271 -0.0567  0.0139 -0.2517
 1088WAT      O 4413   2.993   2.041   1.294 -0.0362  0.1672  0.2195
 1088WAT     H1 4414   2.994   2.119   1.349 -0.1379 -0.0597  0.5490
 1088WAT     H2 4415   2.988   2.074   1.204 -0.5859  0.5290  0.3808
 1088WAT    EPW 4416   2.993   2.055   1.289 -0.1221  0.1850  0.2843
 1089WAT      O 4417   0.065   2.009   2.744 -0.0675 -0.2573  0.0542
 1089WAT     H1 4418   0.109   1.969   2.819 -0.0286  0.8335  0.6237
 1089WAT     H2 4419   0.127   1.999   2.672  0.7094  0.3801  0.6133
 1089WAT    EPW 4420   0.079   2.002   2.744  0.0401 -0.0294  0.2030
 1090WAT      O 4421   3.197   3.876   1.957 -0.4459 -0.0978 -0.0072
 1090WAT     H1 4422   3.268   3.926   1.997 -0.2269 -0.4353  0.0299
 1090WAT     H2 4423   3.121   3.893   2.013 -0.4461  0.4270 -0.1661
 1090WAT    EPW 4424   3.196   3.884   1.970 -0.4170 -0.0731 -0.0232
 1091WAT      O 4425   2.777   0.130   0.299 -0.0460  0.3119 -0.1214
 1091WAT     H1 4426   2.734   0.075   0.233  0.0946 -0.3367  0.3157
 1091WAT     H2 4427   2.871   0.116   0.285  0.0703  1.9026 -1.2224
 1091WAT    EPW 4428   2.784   0.121   0.288 -0.0121  0.4362 -0.2089
 1092WAT      O 4429   3.420   0.709   0.118  0.2882  0.1615 -0.3885
 1092WAT     H1 4430   3.493   0.650   0.137  0.2826 -0.2937 -1.6774
 1092WAT     H2 4431   3.412   0.764   0.196  1.2756 -0.5379  0.2196
 1092WAT    EPW 4432   3.428   0.709   0.130  0.4177  0.0092 -0.4783
 1093WAT      O 4433   3.573   0.889   1.178 -0.0318  0.2570  0.0355
 1093WAT     H1 4434   3.611   0.953   1.119 -0.7066 -0.3071 -1.0435
 1093WAT     H2 4435   3.581   0.805   1.131  1.0265 -0.5007  1.4954
 1093WAT    EPW 4436   3.579   0.886   1.164  0.0188  0.0827  0.0857
 1094WAT      O 4437   3.637   2.082   3.169  0.0450 -0.3791  0.4822
 1094WAT     H1 4438   3.633   2.158   3.110  1.0395  1.6240  2.8325
 1094WAT     H2 4439   3.723   2.044   3.154  0.4202  0.3151  0.8421
 1094WAT    EPW 4440   3.648   2.087   3.159  0.2256 -0.0233  0.8397
 1095WAT      O 4441   1.571   0.799   0.820  0.3663 -0.5650  0.1910
 1095WAT     H1 4442   1.539   0.887   0.801  3.4641  1.1885  2.1501
 1095WAT     H2 4443   1.592   0.762   0.734 -0.4818  0.8332 -0.6611
 1095WAT    EPW 4444   1.570   0.806   0.806  0.6630 -0.1493  0.3370
 1096WAT      O 4445   3.046   1.890   3.749 -0.2778  0.3561  0.2070
 1096WAT     H1 4446   3.088   1.859   3.829 -0.3490 -0.6535 -0.1375
 1096WAT     H2 4447   2.954   1.904   3.774 -0.0471  1.2456  0.6071
 1096WAT    EPW 4448   3.039   1.888   3.763 -0.2568  0.3403  0.2143
 1097WAT      O 4449   2.853   2.369   2.368  0.2928  0.3058 -0.3548
 1097WAT     H1 4450   2.881   2.369   2.276 -1.3242  0.3692 -0.8815
 1097WAT     H2 4451   2.935   2.375   2.418  1.2110  0.1892 -1.7798
 1097WAT    EPW 4452   2.868   2.370   2.362  0.2006  0.2988 -0.6122
 1098WAT      O 4453   1.584   3.480   0.730 -0.4225  0.2673 -0.5210
 1098WAT     H1 4454   1.649   3.530   0.778 -1.0739  0.6795 -0.0616
 1098WAT     H2 4455   1.570   3.401   0.783  0.3944 -0.2985 -1.1033
 1098WAT    EPW 4456   1.591   3.476   0.743 -0.4007  0.2471 -0.5372
 1099WAT      O 4457   2.712   0.138   2.584  0.1710  0.0782 -0.4325
 1099WAT     H1 4458   2.676   0.220   2.618  1.7103  1.2945 -1.5739
 1099WAT     H2 4459   2.798   0.131   2.625 -0.0434 -1.1198 -0.1584
 1099WAT    EPW 4460   2.719   0.148   2.594  0.3458  0.0806 -0.5469
 1100WAT      O 4461   0.623   0.234   2.981 -0.1914 -0.2505  0.5658
 1100WAT     H1 4462   0.648   0.297   2.913 -1.2955  1.0213  1.2793
 1100WAT     H2 4463   0.700   0.227   3.037  0.8367 -1.5318 -0.9175
 1100WAT    EPW 4464   0.636   0.242   2.979 -0.2014 -0.2518  0.4642
 1101WAT      O 4465   1.199   0.244   0.905  0.8117 -0.5265 -0.1395
 1101WAT     H1 4466   1.202   0.234   0.809  1.5806 -0.8417 -0.0953
 1101WAT     H2 4467   1.289   0.226   0.933 -0.2114 -4.9605  1.0562
 1101WAT    EPW 4468   1.211   0.240   0.896  0.7782 -1.1529  0.0240
 1102WAT      O 4469   2.154   1.205   3.760  0.5017 -0.3644  0.1402
 1102WAT     H1 4470   2.206   1.220   3.681  0.5334  1.6462  0.4939
 1102WAT     H2 4471   2.114   1.290   3.779 -1.4236 -1.3893  0.9562
 1102WAT    EPW 4472   2.156   1.218   3.752  0.2519 -0.2344  0.2945
 1103WAT      O 4473   3.406   4.188   1.261 -0.2843 -0.2904  0.3821
 1103WAT     H1 4474   3.383   4.238   1.339 -0.1870 -2.1301  1.6441
 1103WAT     H2 4475   3.488   4.145   1.283 -0.3445 -0.9774 -0.6654
 1103WAT    EPW 4476   3.414   4.189   1.274 -0.2794 -0.6236  0.4104
 1104WAT      O 4477   1.485   0.794   3.911  0.0222  0.1015  0.2225
 1104WAT     H1 4478   1.531   0.810   3.829 -2.0962  0.1461 -1.0225
 1104WAT     H2 4479   1.396   0.771   3.885 -0.8210  0.4674  2.5305
 1104WAT    EPW 4480   1.479   0.793   3.897 -0.3684  0.1557  0.3627
 1105WAT      O 4481   3.385   2.326   1.149  0.4453 -0.3245 -0.5190
 1105WAT     H1 4482   3.387   2.304   1.243  0.5324  0.3615 -0.3579
 1105WAT     H2 4483   3.303   2.374   1.138  0.8554  0.3644 -0.6150
 1105WAT    EPW 4484   3.375   2.329   1.160  0.5109 -0.1432 -0.5104
 1106WAT      O 4485   3.284   1.072   0.616 -0.2377 -0.2990 -0.0667
 1106WAT     H1 4486   3.326   1.008   0.672 -0.1816  0.7536  1.1290
 1106WAT     H2 4487   3.353   1.104   0.559 -0.2743 -1.3009 -0.7001
 1106WAT    EPW 4488   3.298   1.068   0.616 -0.2351 -0.2923  0.0075
 1107WAT      O 4489   1.229   0.681   3.879 -0.2020 -0.5266  0.4519
 1107WAT     H1 4490   1.186   0.674   3.794  0.3445  1.5549 -0.0608
 1107WAT     H2 4491   1.158   0.673   3.943 -0.7057 -1.4359 -0.1920
 1107WAT    EPW 4492   1.214   0.679   3.876 -0.1964 -0.3720  0.2994
 1108WAT      O 4493   2.022   4.069   1.556  0.2207 -0.3859 -0.6975
 1108WAT     H1 4494   1.932   4.040   1.570 -0.0482 -0.1568 -1.8720
 1108WAT     H2 4495   2.028   4.152   1.603  0.5224 -1.5129  1.3429
 1108WAT    EPW 4496   2.011   4.076   1.564  0.2250 -0.5043 -0.5833
 1109WAT      O 4497   3.080   1.153   2.012 -0.0654 -0.5100 -0.1971
 1109WAT     H1 4498   3.050   1.063   2.010  0.1951 -0.6877  1.7366
 1109WAT     H2 4499   3.169   1.150   1.976 -0.4933 -0.8108 -1.2417
 1109WAT    EPW 4500   3.088   1.141   2.007 -0.0875 -0.5731 -0.0798
 1110WAT      O 4501   2.207   3.027   2.069  0.7433  0.5320 -0.8379
 1110WAT     H1 4502   2.275   3.058   2.130 -1.0652  2.7238  0.2165
 1110WAT     H2 4503   2.186   3.104   2.016 -0.1491 -0.4181 -1.9062
 1110WAT    EPW 4504   2.213   3.041   2.070  0.3871  0.6958 -0.8398
 1111WAT      O 4505   3.172   3.113   3.173 -0.1625  0.2201  0.1889
 1111WAT     H1 4506   3.082   3.138   3.195 -0.8137 -0.3787 -1.6032
 1111WAT     H2 4507   3.221   3.125   3.255 -1.7441  1.0840  1.0607
 1111WAT    EPW 4508   3.166   3.118   3.187 -0.4570  0.2550  0.0675
 1112WAT      O 4509   1.206   1.769   3.294 -0.5073  0.5940 -0.2112
 1112WAT     H1 4510   1.202   1.676   3.315 -1.2308  0.0028 -2.7100
 1112WAT     H2 4511   1.247   1.772   3.207 -0.3753  2.6303 -0.1142
 1112WAT    EPW 4512   1.211   1.757   3.285 -0.5853  0.7846 -0.5280
 1113WAT      O 4513   2.829   3.536   0.059  0.0148  0.4721 -0.1398
 1113WAT     H1 4514   2.795   3.459   0.105 -0.8030  0.9254  0.0497
 1113WAT     H2 4515   2.800   3.524  -0.031  0.2422  0.3602 -0.1985
 1113WAT    EPW 4516   2.821   3.524   0.054 -0.0631  0.5171 -0.1225
 1114WAT      O 4517   3.247   3.462   3.863 -0.0480  0.0109 -0.2500
 1114WAT     H1 4518   3.235   3.372   3.893 -0.6440 -0.2903 -1.3240
 1114WAT     H2 4519   3.326   3.492   3.907 -0.1602 -0.8412  0.5624
 1114WAT    EPW 4520   3.256   3.454   3.873 -0.1414 -0.1412 -0.2845
 1115WAT      O 4521   3.465   2.524   0.730  0.0532  0.0973  0.3682
 1115WAT     H1 4522   3.529   2.453   0.716  0.0597 -0.3439  2.3719
 1115WAT     H2 4523   3.467   2.574   0.648  1.5344 -1.0373 -0.3422
 1115WAT    EPW 4524   3.474   2.521   0.717  0.2494 -0.1105  0.5388
 1116WAT      O 4525   2.457   1.359   3.209 -0.0830 -0.5337 -0.3228
 1116WAT     H1 4526   2.531   1.405   3.249 -0.1961 -0.1074 -0.5995
 1116WAT     H2 4527   2.478   1.266   3.220  1.2016 -0.4436 -1.6600
 1116WAT    EPW 4528   2.470   1.353   3.216  0.0715 -0.4656 -0.5357
 1117WAT      O 4529   0.402   2.790   0.014 -0.2208  0.2937  0.0596
 1117WAT     H1 4530   0.382   2.815  -0.076 -0.5378 -0.5422 -0.1005
 1117WAT     H2 4531   0.451   2.708   0.007  0.8691  0.8600  0.5893
 1117WAT    EPW 4532   0.406   2.783   0.001 -0.1188  0.2581  0.1084
 1118WAT      O 4533   1.944   3.070   3.092  0.5236 -0.4176  0.3342
 1118WAT     H1 4534   1.850   3.090   3.086 -0.1824 -3.3065  0.3319
 1118WAT     H2 4535   1.964   3.078   3.185 -0.5034 -2.5540  0.8027
 1118WAT    EPW 4536   1.934   3.074   3.103  0.2950 -1.0804  0.3957
 1119WAT      O 4537   0.512   3.523   1.536  0.2912 -0.0222 -0.3064
 1119WAT     H1 4538   0.519   3.598   1.595  0.4038  0.0090 -0.3583
 1119WAT     H2 4539   0.506   3.562   1.448 -0.1012 -0.0617 -0.2994
 1119WAT    EPW 4540   0.512   3.538   1.532  0.2543 -0.0233 -0.3123
 1120WAT      O 4541   0.737   0.459   3.298  0.4656 -0.4053  0.3059
 1120WAT     H1 4542   0.810   0.521   3.290  0.8781 -0.8253  0.7528
 1120WAT     H2 4543   0.766   0.382   3.248  0.8516 -1.0401  1.4736
 1120WAT    EPW 4544   0.750   0.457   3.290  0.5709 -0.5444  0.5189
 1121WAT      O 4545   3.359   4.155   3.066  0.6628  0.3383 -0.1786
 1121WAT     H1 4546   3.297   4.220   3.033 -0.0993 -0.2228  0.1260
 1121WAT     H2 4547   3.406   4.201   3.135  1.1721  1.0247 -0.9526
 1121WAT    EPW 4548   3.357   4.170   3.070  0.6295  0.3549 -0.2405
 1122WAT      O 4549   0.944   2.414   3.665  0.4260 -0.1841  0.0415
 1122WAT     H1 4550   0.958   2.342   3.604 -0.6406 -0.5165  0.1641
 1122WAT     H2 4551   0.886   2.377   3.732  1.6798  0.1307  1.3439
 1122WAT    EPW 4552   0.938   2.400   3.666  0.4507 -0.1864  0.2294
 1123WAT      O 4553   0.501   1.128   3.587  0.0968  0.0749  0.0514
 1123WAT     H1 4554   0.554   1.062   3.543  0.8160  0.0096  0.9851
 1123WAT     H2 4555   0.463   1.083   3.662 -0.7392  0.3076 -0.2141
 1123WAT    EPW 4556   0.503   1.113   3.591  0.0814  0.0970  0.1395
 1124WAT      O 4557   2.205   2.059   0.461  0.2390  0.2889  0.2935
 1124WAT     H1 4558   2.109   2.062   0.461  0.1529  0.0640  2.9022
 1124WAT     H2 4559   2.228   2.064   0.554  2.8549  3.1366 -0.3690
 1124WAT    EPW 4560   2.195   2.060   0.473  0.5726  0.6348  0.5502
 1125WAT      O 4561   0.985   2.722   1.188 -0.2969 -0.3342  0.4901
 1125WAT     H1 4562   0.960   2.633   1.164  1.2127 -1.0478  1.3996
 1125WAT     H2 4563   1.049   2.747   1.121 -1.7638  0.6735 -0.6093
 1125WAT    EPW 4564   0.990   2.713   1.176 -0.2913 -0.2954  0.4650
 1126WAT      O 4565   3.393   1.815   0.346 -0.2257 -0.4130  0.2862
 1126WAT     H1 4566   3.324   1.880   0.358  0.1468  0.0744 -0.1463
 1126WAT     H2 4567   3.456   1.858   0.288  1.7146  0.1601  2.6407
 1126WAT    EPW 4568   3.392   1.830   0.340  0.0793 -0.2732  0.5397
 1127WAT      O 4569   1.443   1.504   2.909  0.0800  0.0416 -0.2027
 1127WAT     H1 4570   1.522   1.556   2.921  0.1073  0.4198 -1.8360
 1127WAT     H2 4571   1.431   1.499   2.814 -1.1028 -1.1591 -0.0241
 1127WAT    EPW 4572   1.452   1.510   2.898 -0.0724 -0.0669 -0.3946
 1128WAT      O 4573   1.779   2.979   1.696  0.0939  0.2625  0.0984
 1128WAT     H1 4574   1.710   3.038   1.667  0.6517  1.3534  0.9286
 1128WAT     H2 4575   1.747   2.892   1.673 -0.5597  0.9035 -1.5251
 1128WAT    EPW 4576   1.765   2.975   1.690  0.0812  0.4909 -0.0062
 1129WAT      O 4577   3.585   1.870   1.171 -0.5422 -0.2631  0.7864
 1129WAT     H1 4578   3.551   1.782   1.187 -0.1732 -0.7051 -0.6999
 1129WAT     H2 4579   3.563   1.889   1.080  0.2121  0.8066  0.7938
 1129WAT    EPW 4580   3.578   1.861   1.161 -0.3941 -0.1803  0.5914
 1130WAT      O 4581   1.672   0.636   3.063  0.3139 -0.1842  0.4432
 1130WAT     H1 4582   1.715   0.557   3.031  1.8904  0.4501  0.8804
 1130WAT     H2 4583   1.584   0.608   3.086  0.1653 -1.3552 -1.3352
 1130WAT    EPW 4584   1.666   0.622   3.062  0.5023 -0.2550  0.2663
 1131WAT      O 4585   0.719   2.948   2.291  0.4591  0.2789  0.0534
 1131WAT     H1 4586   0.721   2.853   2.281  1.6262  0.3416 -0.5009
 1131WAT     H2 4587   0.807   2.971   2.322  0.2407  1.1813  0.0452
 1131WAT    EPW 4588   0.731   2.939   2.293  0.5843  0.4062 -0.0208
 1132WAT      O 4589   1.691   0.301   1.351  0.1418  0.3582 -0.1894
 1132WAT     H1 4590   1.748   0.272   1.280 -1.3144  0.7994 -1.5880
 1132WAT     H2 4591   1.698   0.232   1.417  1.3585 -0.1596 -0.8252
 1132WAT    EPW 4592   1.700   0.288   1.350  0.1102  0.3481 -0.4577
 1133WAT      O 4593   1.051   1.508   1.120  0.2685  0.2121  0.3104
 1133WAT     H1 4594   1.027   1.563   1.045 -1.3247 -0.7867  0.0352
 1133WAT     H2 4595   1.022   1.556   1.197  1.0431  0.8064  0.2457
 1133WAT    EPW 4596   1.044   1.521   1.120  0.1605  0.1588  0.2656
 1134WAT      O 4597   0.242   2.225   1.293  0.2260 -0.6251  0.1327
 1134WAT     H1 4598   0.190   2.148   1.317 -0.9647  0.6451  1.8030
 1134WAT     H2 4599   0.213   2.294   1.353  0.6137  1.4041 -1.8825
 1134WAT    EPW 4600   0.232   2.224   1.304  0.1201 -0.1899  0.0872
 1135WAT      O 4601   3.085   1.624   2.541 -0.1540 -0.4536  0.0858
 1135WAT     H1 4602   3.143   1.658   2.609 -0.3590 -0.7235  0.3967
 1135WAT     H2 4603   3.021   1.693   2.526  1.1420  0.5176 -1.3724
 1135WAT    EPW 4604   3.084   1.638   2.548 -0.0101 -0.3611 -0.0655
 1136WAT      O 4605   0.184   2.991   2.454 -0.1649  0.0486 -0.5575
 1136WAT     H1 4606   0.195   3.068   2.397  0.9967 -0.5288 -1.1461
 1136WAT     H2 4607   0.201   3.024   2.542  0.8050  0.3784 -0.8599
 1136WAT    EPW 4608   0.187   3.006   2.458  0.1163  0.0159 -0.6750
 1137WAT      O 4609   1.420   3.507   3.760  0.2251  0.2522  0.3855
 1137WAT     H1 4610   1.414   3.597   3.728 -0.0244 -0.2946 -1.2482
 1137WAT     H2 4611   1.345   3.463   3.719  0.1591 -0.6344  1.4194
 1137WAT    EPW 4612   1.409   3.513   3.750  0.1835  0.0631  0.3064
 1138WAT      O 4613   2.055   3.568   0.981  0.2708 -0.1383  0.2035
 1138WAT     H1 4614   2.075   3.479   0.950 -0.6753 -0.3504  0.1803
 1138WAT     H2 4615   2.141   3.610   0.988  0.6725 -0.8127 -0.5056
 1138WAT    EPW 4616   2.069   3.562   0.978  0.1990 -0.2552  0.1069
 1139WAT      O 4617   2.086   1.879   2.183  0.0937  0.0486  0.3672
 1139WAT     H1 4618   2.124   1.967   2.190  2.2893 -0.7653 -0.5435
 1139WAT     H2 4619   2.119   1.833   2.261 -0.3923 -0.2129  0.4221
 1139WAT    EPW 4620   2.095   1.885   2.194  0.3192 -0.0933  0.2544
 1140WAT      O 4621   2.646   1.687   1.591 -0.1321  0.0563  0.0504
 1140WAT     H1 4622   2.674   1.731   1.671 -0.9250 -0.2174  0.4839
 1140WAT     H2 4623   2.710   1.715   1.525 -0.3020  1.4040  0.4355
 1140WAT    EPW 4624   2.658   1.696   1.593 -0.2591  0.1979  0.1583
 1141WAT      O 4625   3.171   2.958   2.930  0.2573  0.2064 -0.0133
 1141WAT     H1 4626   3.174   3.000   3.016 -1.9530 -1.4364  0.9802
 1141WAT     H2 4627   3.132   3.024   2.872 -0.5204  0.5296  0.8469
 1141WAT    EPW 4628   3.166   2.972   2.933 -0.1368  0.0324  0.2312
 1142WAT      O 4629   2.610   2.703   0.920 -0.2626 -0.1745  0.0401
 1142WAT     H1 4630   2.626   2.624   0.972 -1.8676 -0.2887  0.4306
 1142WAT     H2 4631   2.613   2.673   0.829  1.9089 -0.1051  0.0560
 1142WAT    EPW 4632   2.612   2.688   0.915 -0.1879 -0.1804  0.0937
 1143WAT      O 4633   0.957   3.203   0.154  0.5192  0.0179  0.2378
 1143WAT     H1 4634   0.911   3.121   0.174 -4.1195  1.9113 -1.3196
 1143WAT     H2 4635   0.954   3.251   0.237  0.4518 -0.2033  0.3674
 1143WAT    EPW 4636   0.950   3.198   0.168 -0.1015  0.2384  0.0495
 1144WAT      O 4637   3.071   1.321   0.605 -0.1877  0.0418  0.0536
 1144WAT     H1 4638   3.155   1.300   0.564 -0.2109 -1.6077  0.7492
 1144WAT     H2 4639   3.091   1.391   0.666  0.7679 -0.5401  0.4419
 1144WAT    EPW 4640   3.085   1.327   0.607 -0.0647 -0.2525  0.1966
 1145WAT      O 4641   1.715   0.680   1.635 -0.7520 -0.7606 -0.0622
 1145WAT     H1 4642   1.668   0.760   1.610 -1.5980 -1.5782 -1.2294
 1145WAT     H2 4643   1.806   0.707   1.642 -1.2636  0.7291  1.5804
 1145WAT    EPW 4644   1.721   0.694   1.632 -0.9310 -0.6720  0.0005
 1146WAT      O 4645   3.533   2.944   1.750  0.2126 -0.1548 -0.4476
 1146WAT     H1 4646   3.548   2.969   1.841 -3.2072  1.0298 -0.0900
 1146WAT     H2 4647   3.612   2.974   1.705  1.3136  0.7092  1.8624
 1146WAT    EPW 4648   3.546   2.951   1.756 -0.0933  0.1154 -0.0958
 1147WAT      O 4649   0.556   0.317   0.717 -0.3007 -0.3457 -0.3029
 1147WAT     H1 4650   0.559   0.402   0.674  0.4735 -0.1797  0.0604
 1147WAT     H2 4651   0.479   0.273   0.680  0.8927 -0.6206 -2.5991
 1147WAT    EPW 4652   0.546   0.322   0.707 -0.0412 -0.3601 -0.5578
 1148WAT      O 4653   0.257   0.600   2.012  0.1680 -0.2974 -0.1664
 1148WAT     H1 4654   0.255   0.643   1.926 -0.6513  2.0179  0.9321
 1148WAT     H2 4655   0.174   0.552   2.017  0.1172 -0.2561 -0.5521
 1148WAT    EPW 4656   0.246   0.599   2.001  0.0532  0.0135 -0.0724
 1149WAT      O 4657   2.502   1.725   2.470  0.2031  0.0009  0.1291
 1149WAT     H1 4658   2.503   1.753   2.378 -0.3811 -1.6484 -0.4284
 1149WAT     H2 4659   2.593   1.728   2.497  0.2479  1.6952 -0.0900
 1149WAT    EPW 4660   2.514   1.729   2.461  0.1320  0.0068  0.0267
 1150WAT      O 4661   1.178   2.229   1.645  0.2663  0.1959  0.0728
 1150WAT     H1 4662   1.262   2.199   1.610 -0.4085 -1.4143 -0.2504
 1150WAT     H2 4663   1.127   2.253   1.568  0.0590  0.1638  0.1999
 1150WAT    EPW 4664   1.182   2.228   1.630  0.1499 -0.0207  0.0470
 1151WAT      O 4665   1.362   4.059   2.723 -0.3927 -0.1919 -0.0132
 1151WAT     H1 4666   1.427   4.121   2.691 -0.1500 -0.6060 -0.3388
 1151WAT     H2 4667   1.351   4.080   2.815 -1.1436  1.0657 -0.3658
 1151WAT    EPW 4668   1.369   4.070   2.731 -0.4597 -0.0806 -0.1026
 1152WAT      O 4669   0.470   2.708   1.485  0.2739  0.5428 -0.5925
 1152WAT     H1 4670   0.513   2.693   1.569 -0.9506  1.4722  0.2127
 1152WAT     H2 4671   0.525   2.660   1.422  0.0936 -1.8730  0.9826
 1152WAT    EPW 4672   0.483   2.699   1.488  0.0886  0.3468 -0.2785
 1153WAT      O 4673   2.151   3.693   1.904 -0.4785 -0.6019 -0.0782
 1153WAT     H1 4674   2.093   3.618   1.890 -0.2972 -1.0299  1.3021
 1153WAT     H2 4675   2.238   3.662   1.879 -0.5318 -0.5609 -0.3253
 1153WAT    EPW 4676   2.154   3.679   1.899 -0.4616 -0.6529  0.0713
 1154WAT      O 4677   0.709   1.597   3.710  0.6303  0.2408  0.3588
 1154WAT     H1 4678   0.625   1.555   3.692  0.0308  1.0999  1.0839
 1154WAT     H2 4679   0.755   1.535   3.767  0.2428  0.0274  0.4439
 1154WAT    EPW 4680   0.704   1.584   3.715  0.5001  0.3259  0.4657
 1155WAT      O 4681   0.796   1.537   2.677 -0.3127  0.3875 -0.1423
 1155WAT     H1 4682   0.853   1.501   2.610  1.1027  1.2302  0.5705
 1155WAT     H2 4683   0.832   1.623   2.696 -1.4720  0.7045  0.7627
 1155WAT    EPW 4684   0.808   1.543   2.671 -0.2789  0.5405  0.0711
 1156WAT      O 4685   2.131   3.763   0.306 -0.6032 -0.5490 -0.0140
 1156WAT     H1 4686   2.097   3.681   0.342 -0.9592 -0.0450  0.8233
 1156WAT     H2 4687   2.122   3.826   0.377 -0.1130  0.1674 -0.5715
 1156WAT    EPW 4688   2.126   3.760   0.320 -0.5855 -0.3881  0.0229
 1157WAT      O 4689   3.179   0.240   2.323 -0.8230  0.2161  0.7851
 1157WAT     H1 4690   3.255   0.249   2.266 -0.7170  0.4079  0.9531
 1157WAT     H2 4691   3.191   0.155   2.366 -0.1321  0.7188  1.6296
 1157WAT    EPW 4692   3.191   0.230   2.321 -0.7179  0.3077  0.9186
 1158WAT      O 4693   2.912   3.203   3.237  0.2176 -0.3864  0.1799
 1158WAT     H1 4694   2.964   3.264   3.290  2.0904 -1.1981 -0.6396
 1158WAT     H2 4695   2.882   3.255   3.163  1.5518 -0.3294 -0.3588
 1158WAT    EPW 4696   2.915   3.218   3.234  0.6406 -0.4859  0.0008
 1159WAT      O 4697   0.290   2.266   1.984  0.0766  0.4536  0.3488
 1159WAT     H1 4698   0.358   2.231   2.041  1.8813 -0.9831 -2.4305
 1159WAT     H2 4699   0.229   2.194   1.973 -0.5646  0.9096  0.8657
 1159WAT    EPW 4700   0.291   2.252   1.990  0.2301  0.3243  0.0504
 1160WAT      O 4701   1.446   1.045   0.648 -0.1994 -0.1901  0.5431
 1160WAT     H1 4702   1.383   1.110   0.615 -0.8074 -0.9149  0.2367
 1160WAT     H2 4703   1.444   0.976   0.582 -0.0568 -0.8204  1.1931
 1160WAT    EPW 4704   1.437   1.045   0.635 -0.2608 -0.3688  0.5884
 1161WAT      O 4705   1.859   2.479   1.074 -0.2879 -0.2242  0.3945
 1161WAT     H1 4706   1.806   2.400   1.087 -1.0939  0.6619  3.2003
 1161WAT     H2 4707   1.812   2.528   1.007 -1.5613 -0.6976  0.9037
 1161WAT    EPW 4708   1.846   2.475   1.067 -0.5621 -0.1698  0.8317
 1162WAT      O 4709   0.360   2.490   3.756  0.0230 -0.0776  0.2776
 1162WAT     H1 4710   0.312   2.524   3.832 -1.6623 -1.3640 -0.1523
 1162WAT     H2 4711   0.312   2.523   3.681  1.9301  1.5514 -0.3173
 1162WAT    EPW 4712   0.347   2.499   3.757  0.0522 -0.0324  0.1424
 1163WAT      O 4713   2.457   1.426   2.462 -0.1625  0.2645  0.4923
 1163WAT     H1 4714   2.492   1.341   2.487 -0.0111  0.3241  0.4838
 1163WAT     H2 4715   2.503   1.489   2.517  1.2695  0.5391 -0.9213
 1163WAT    EPW 4716   2.468   1.423   2.472  0.0464  0.3086  0.3047
 1164WAT      O 4717   1.763   0.039   3.293 -0.0616  0.0455 -0.7366
 1164WAT     H1 4718   1.855   0.050   3.271  0.2999 -1.3284 -0.0288
 1164WAT     H2 4719   1.726  -0.009   3.218  0.0951 -0.4830 -0.4835
 1164WAT    EPW 4720   1.770   0.034   3.280  0.0068 -0.2054 -0.6099
 1165WAT      O 4721   2.336   2.471   1.147  0.2135 -0.5548 -0.7684
 1165WAT     H1 4722   2.426   2.492   1.170  0.3239 -1.4732 -0.3388
 1165WAT     H2 4723   2.342   2.420   1.067  0.0138  0.1009 -1.2098
 1165WAT    EPW 4724   2.349   2.467   1.140  0.2017 -0.5895 -0.7699
 1166WAT      O 4725   0.991   2.380   1.986 -0.2934  0.0500 -0.5439
 1166WAT     H1 4726   0.940   2.399   1.907 -0.1852  1.4495 -0.2922
 1166WAT     H2 4727   1.046   2.306   1.961 -0.7907 -0.0120 -1.5393
 1166WAT    EPW 4728   0.991   2.373   1.972 -0.3447  0.2264 -0.6420
 1167WAT      O 4729   0.455   0.862   2.638  0.5588  0.9137 -0.0535
 1167WAT     H1 4730   0.460   0.808   2.559  0.9557 -0.3626  0.8143
 1167WAT     H2 4731   0.368   0.903   2.634 -0.0731 -0.4134 -0.3516
 1167WAT    EPW 4732   0.444   0.860   2.627  0.5278  0.5703  0.0216
 1168WAT      O 4733   3.094   2.320   0.443  0.7060 -0.6146 -0.0677
 1168WAT     H1 4734   3.007   2.321   0.403  1.2181  0.2406 -1.2194
 1168WAT     H2 4735   3.154   2.313   0.369  1.6058 -3.5268  0.8064
 1168WAT    EPW 4736   3.090   2.319   0.428  0.8922 -0.8859 -0.1043
 1169WAT      O 4737   1.414   4.215   3.460  0.3662  0.1216 -0.1948
 1169WAT     H1 4738   1.326   4.177   3.453  0.4686 -0.0461 -0.6339
 1169WAT     H2 4739   1.472   4.146   3.428  0.6919  0.0994  0.4411
 1169WAT    EPW 4740   1.410   4.201   3.455  0.4226  0.0966 -0.1688
 1170WAT      O 4741   2.765   3.463   3.362  0.8522 -0.7204  0.1785
 1170WAT     H1 4742   2.809   3.530   3.310  0.5158 -0.4638  0.2232
 1170WAT     H2 4743   2.672   3.479   3.350  0.7010  0.7904  2.6211
 1170WAT    EPW 4744   2.758   3.474   3.354  0.7879 -0.4873  0.5066
 1171WAT      O 4745   0.592   0.937   3.864 -0.0554 -0.5172 -0.8424
 1171WAT     H1 4746   0.567   0.847   3.886  0.1142 -0.2876  0.3590
 1171WAT     H2 4747   0.634   0.929   3.778 -1.6645 -1.3041 -1.6032
 1171WAT    EPW 4748   0.594   0.924   3.855 -0.2453 -0.5907 -0.7843
 1172WAT      O 4749   3.255   2.607   0.505 -0.1360 -0.1765  0.5318
 1172WAT     H1 4750   3.220   2.679   0.558 -0.1985 -0.5354  0.9868
 1172WAT     H2 4751   3.179   2.559   0.476 -0.0889 -0.1149  0.3060
 1172WAT    EPW 4752   3.241   2.610   0.508 -0.1380 -0.2157  0.5620
 1173WAT      O 4753   1.440   1.860   2.431  0.2402 -0.0943  0.1290
 1173WAT     H1 4754   1.354   1.847   2.390 -0.1844 -1.8817  1.4813
 1173WAT     H2 4755   1.493   1.786   2.400  1.0682  0.5496 -0.0434
 1173WAT    EPW 4756   1.436   1.849   2.421  0.2934 -0.2451  0.2846
 1174WAT      O 4757   1.322   2.463   0.394  0.6297 -0.3197 -0.3685
 1174WAT     H1 4758   1.405   2.476   0.440  0.4333  0.7628 -0.2859
 1174WAT     H2 4759   1.305   2.547   0.352 -0.7763 -0.2825  0.2201
 1174WAT    EPW 4760   1.331   2.476   0.395  0.4183 -0.1720 -0.2799
 1175WAT      O 4761   0.631   1.199   0.658 -0.4374 -0.2658  0.2886
 1175WAT     H1 4762   0.666   1.219   0.571 -1.1428  0.1301  0.0895
 1175WAT     H2 4763   0.661   1.110   0.676 -1.1897 -0.7657 -0.8272
 1175WAT    EPW 4764   0.640   1.190   0.649 -0.6297 -0.2796  0.1152
 1176WAT      O 4765   0.752   1.574   1.197  0.0368 -0.0131  0.2586
 1176WAT     H1 4766   0.822   1.622   1.152 -0.5418 -0.2223 -0.8972
 1176WAT     H2 4767   0.718   1.514   1.131 -0.8676 -0.3086  0.9729
 1176WAT    EPW 4768   0.757   1.572   1.182 -0.1588 -0.0796  0.2004
 1177WAT      O 4769   2.270   2.743   0.064  0.3369 -0.7503 -0.3207
 1177WAT     H1 4770   2.363   2.750   0.085  0.2141 -0.6038  0.1896
 1177WAT     H2 4771   2.231   2.700   0.141  0.1449 -1.7610 -0.9713
 1177WAT    EPW 4772   2.277   2.738   0.077  0.2954 -0.8643 -0.3392
 1178WAT      O 4773   1.378   1.176   1.923  0.8194  0.2997 -1.1178
 1178WAT     H1 4774   1.385   1.213   1.835  2.0538  0.7472 -0.8539
 1178WAT     H2 4775   1.466   1.186   1.960  0.1242  0.8759  0.4651
 1178WAT    EPW 4776   1.391   1.183   1.917  0.8905  0.4347 -0.8742
 1179WAT      O 4777   3.085   0.273   0.327 -0.1568  0.3511 -0.2098
 1179WAT     H1 4778   3.084   0.285   0.421  1.1686 -1.6987  0.1388
 1179WAT     H2 4779   3.169   0.308   0.299  0.6650 -1.4582 -0.1704
 1179WAT    EPW 4780   3.096   0.279   0.335  0.1264 -0.1579 -0.1587
 1180WAT      O 4781   3.467   3.536   3.998  0.2118 -0.1785 -0.4339
 1180WAT     H1 4782   3.432   3.561   4.084 -0.4065 -3.4230  0.4095
 1180WAT     H2 4783   3.560   3.519   4.014 -0.1935 -2.2366  0.0623
 1180WAT    EPW 4784   3.474   3.537   4.011  0.0768 -0.8779 -0.2572
 1181WAT      O 4785   0.654   3.224   3.168  0.0053  0.1309 -0.5231
 1181WAT     H1 4786   0.664   3.160   3.239  0.1436  0.3728 -0.3225
 1181WAT     H2 4787   0.722   3.289   3.185 -0.7919  0.8922 -0.1180
 1181WAT    EPW 4788   0.664   3.224   3.180 -0.0816  0.2632 -0.4432
 1182WAT      O 4789   2.446   1.806   3.983  0.3476  0.6309  0.0820
 1182WAT     H1 4790   2.445   1.813   4.079 -0.7270  0.8648  0.0692
 1182WAT     H2 4791   2.368   1.754   3.962  1.1342 -0.3210 -0.6209
 1182WAT    EPW 4792   2.435   1.800   3.993  0.3096  0.5362 -0.0124
 1183WAT      O 4793   0.532   1.631   0.698 -0.0950  0.4187  0.4620
 1183WAT     H1 4794   0.624   1.616   0.718  0.4091  0.4461 -1.6061
 1183WAT     H2 4795   0.516   1.720   0.730  0.0500 -0.2404  2.4871
 1183WAT    EPW 4796   0.542   1.641   0.705 -0.0094  0.3354  0.4563
 1184WAT      O 4797   2.922   2.068   3.194 -0.0953 -0.0954 -0.6087
 1184WAT     H1 4798   2.926   1.973   3.206  2.3235  0.0563  0.2854
 1184WAT     H2 4799   2.836   2.093   3.227  0.0881 -1.7470  1.2674
 1184WAT    EPW 4800   2.911   2.059   3.200  0.2479 -0.2932 -0.2434
 1185WAT      O 4801   2.552   0.970   1.551 -0.4545 -0.2094 -0.2310
 1185WAT     H1 4802   2.495   1.028   1.501 -0.0658 -0.0572 -0.4957
 1185WAT     H2 4803   2.634   1.017   1.560 -0.2196 -0.6096 -0.2303
 1185WAT    EPW 4804   2.555   0.984   1.546 -0.3722 -0.2421 -0.2658
 1186WAT      O 4805   3.432   1.597   2.004 -0.1840  0.6837  0.3720
 1186WAT     H1 4806   3.347   1.570   2.039 -0.5237 -0.1511 -0.9862
 1186WAT     H2 4807   3.493   1.583   2.076 -1.2879  2.0784  1.6449
 1186WAT    EPW 4808   3.428   1.591   2.018 -0.3744  0.7576  0.3607
 1187WAT      O 4809   1.159   0.642   0.896 -0.7922 -0.0129 -0.3909
 1187WAT     H1 4810   1.083   0.649   0.837 -1.5086  2.0899  0.6834
 1187WAT     H2 4811   1.123   0.611   0.978 -0.4283  0.5893  0.0021
 1187WAT    EPW 4812   1.144   0.639   0.899 -0.8387  0.3439 -0.1974
 1188WAT      O 4813   1.739   4.193   2.209  0.4573  0.1308 -0.0427
 1188WAT     H1 4814   1.657   4.194   2.259  0.2973  1.5562 -0.3039
 1188WAT     H2 4815   1.807   4.186   2.275  0.3056  2.9636  0.5421
 1188WAT    EPW 4816   1.737   4.192   2.224  0.4162  0.6924  0.0000
 1189WAT      O 4817   0.375   2.350   2.892 -0.8900  0.1829  0.6723
 1189WAT     H1 4818   0.401   2.264   2.857 -0.5315  0.4598  0.2420
 1189WAT     H2 4819   0.451   2.379   2.943 -0.2152  1.1099 -0.7980
 1189WAT    EPW 4820   0.388   2.342   2.894 -0.7537  0.3417  0.4216
 1190WAT      O 4821   3.184   1.841   3.998  0.3055 -0.2969  0.0763
 1190WAT     H1 4822   3.267   1.882   4.020 -0.9832  1.1797  2.8087
 1190WAT     H2 4823   3.200   1.747   4.007  1.7987 -0.0548  0.0698
 1190WAT    EPW 4824   3.197   1.834   4.002  0.3325 -0.0702  0.4359
 1191WAT      O 4825   2.391   2.556   3.786  0.0496 -0.0324  0.2878
 1191WAT     H1 4826   2.375   2.500   3.710 -0.1640  1.1944 -0.6083
 1191WAT     H2 4827   2.385   2.645   3.752  0.3068  0.5524  1.6826
 1191WAT    EPW 4828   2.388   2.561   3.772  0.0554  0.2065  0.3536
 1192WAT      O 4829   2.954   1.639   3.928  0.3824 -0.1421 -0.5257
 1192WAT     H1 4830   2.968   1.562   3.983 -2.6547 -0.4706 -0.0406
 1192WAT     H2 4831   2.863   1.634   3.902 -0.3415  3.8595  0.4929
 1192WAT    EPW 4832   2.944   1.628   3.932 -0.1137  0.3424 -0.3274
 1193WAT      O 4833   1.201   0.790   2.700  0.4526 -0.3058 -0.0867
 1193WAT     H1 4834   1.281   0.775   2.750  1.0877  0.6600 -0.7909
 1193WAT     H2 4835   1.218   0.870   2.650 -1.0510  0.0614 -0.0488
 1193WAT    EPW 4836   1.214   0.799   2.700  0.3380 -0.1300 -0.1746
 1194WAT      O 4837   1.173   3.572   2.563 -0.9764  0.2465 -0.4079
 1194WAT     H1 4838   1.120   3.511   2.613 -0.0093 -0.3464 -0.0930
 1194WAT     H2 4839   1.124   3.584   2.481 -1.4926 -0.4415 -0.2103
 1194WAT    EPW 4840   1.160   3.566   2.559 -0.9169  0.0776 -0.3403
 1195WAT      O 4841   0.355   4.271   1.340  0.4911 -0.1468 -0.0760
 1195WAT     H1 4842   0.280   4.326   1.362  0.0010 -0.3542 -1.1872
 1195WAT     H2 4843   0.428   4.332   1.333  0.8224 -0.1034  2.5381
 1195WAT    EPW 4844   0.355   4.286   1.342  0.4702 -0.1684  0.1222
 1196WAT      O 4845   0.807   0.993   0.011 -0.4373 -0.3082 -0.2229
 1196WAT     H1 4846   0.881   0.970  -0.046 -0.3543 -0.2195 -0.1498
 1196WAT     H2 4847   0.730   0.965  -0.039 -0.3400 -0.7003 -0.1577
 1196WAT    EPW 4848   0.807   0.986  -0.003 -0.4135 -0.3482 -0.2046
 1197WAT      O 4849   0.534   2.903   0.673  0.0533 -0.2461 -0.4897
 1197WAT     H1 4850   0.551   2.955   0.594 -1.8656  0.1058 -0.7034
 1197WAT     H2 4851   0.440   2.912   0.689  0.3076 -0.6789  1.5944
 1197WAT    EPW 4852   0.524   2.911   0.665 -0.1662 -0.2568 -0.2430
 1198WAT      O 4853   1.674   0.706   2.272  1.0021 -0.8536 -0.0536
 1198WAT     H1 4854   1.672   0.788   2.223  1.3365 -0.9425 -0.2233
 1198WAT     H2 4855   1.598   0.710   2.329  1.6099  0.0691  0.7246
 1198WAT    EPW 4856   1.664   0.718   2.273  1.1264 -0.7437  0.0266
 1199WAT      O 4857   1.410   0.532   3.164 -0.0968  0.6030 -0.1830
 1199WAT     H1 4858   1.356   0.570   3.233 -0.5655 -0.1650 -0.1130
 1199WAT     H2 4859   1.362   0.454   3.136  0.7571  0.1509 -0.4373
 1199WAT    EPW 4860   1.396   0.527   3.169 -0.0460  0.4421 -0.2073
 1200WAT      O 4861   2.231   1.486   0.500  0.1036  0.3714  0.4232
 1200WAT     H1 4862   2.185   1.424   0.444  1.7088  0.0768 -0.6438
 1200WAT     H2 4863   2.182   1.568   0.492 -0.2483  0.0644 -0.6734
 1200WAT    EPW 4864   2.219   1.489   0.492  0.2689  0.2921  0.1379
 1201WAT      O 4865   2.977   0.367   2.685 -0.0409  0.2956  0.1816
 1201WAT     H1 4866   2.966   0.319   2.767 -1.5740 -1.7618 -1.1364
 1201WAT     H2 4867   3.071   0.361   2.667  0.1151 -0.3668  1.1282
 1201WAT    EPW 4868   2.988   0.359   2.693 -0.2226 -0.0631  0.1326
 1202WAT      O 4869   0.003   0.731   2.065 -0.3297  0.1293 -0.4160
 1202WAT     H1 4870  -0.059   0.742   2.136 -0.3947  0.7783 -0.5595
 1202WAT     H2 4871   0.087   0.757   2.103 -0.3572  0.4324 -0.5531
 1202WAT    EPW 4872   0.006   0.736   2.079 -0.3419  0.2549 -0.4530
 1203WAT      O 4873   1.452   1.322   1.685 -0.1567  0.0270  0.1175
 1203WAT     H1 4874   1.539   1.310   1.647  0.0627 -1.5923  1.0261
 1203WAT     H2 4875   1.456   1.408   1.727  1.9113 -1.0158  2.3248
 1203WAT    EPW 4876   1.464   1.332   1.686  0.1450 -0.3241  0.5285
 1204WAT      O 4877   1.059   1.119   2.702 -0.4659 -0.4396 -0.3529
 1204WAT     H1 4878   0.976   1.073   2.687  0.1279 -1.9490  0.7422
 1204WAT     H2 4879   1.070   1.119   2.797  1.4881 -1.5775 -0.5279
 1204WAT    EPW 4880   1.050   1.113   2.712 -0.1299 -0.7888 -0.2315
 1205WAT      O 4881   0.694   0.441   3.849 -0.0511  0.1782 -0.0651
 1205WAT     H1 4882   0.685   0.391   3.768  1.2147 -1.3829  0.7084
 1205WAT     H2 4883   0.730   0.525   3.822 -1.2784  0.3472 -1.2816
 1205WAT    EPW 4884   0.698   0.446   3.835 -0.0460 -0.0054 -0.1235
 1206WAT      O 4885   0.722   3.757   3.614  0.6539  0.4977 -0.3676
 1206WAT     H1 4886   0.778   3.835   3.623  1.2774  0.2140 -1.5988
 1206WAT     H2 4887   0.774   3.686   3.653  0.1325  0.6613  0.6537
 1206WAT    EPW 4888   0.737   3.758   3.621  0.6673  0.4819 -0.3953
 1207WAT      O 4889   1.385   2.424   1.170 -0.0340  0.0490 -0.1620
 1207WAT     H1 4890   1.460   2.483   1.165  1.6230 -2.0754 -2.2268
 1207WAT     H2 4891   1.355   2.431   1.261  3.0181  0.5196  0.9052
 1207WAT    EPW 4892   1.391   2.433   1.181  0.5871 -0.1691 -0.2936
 1208WAT      O 4893   2.940   1.102   0.975 -0.1250  0.0052 -0.1762
 1208WAT     H1 4894   2.935   1.018   1.020  0.8776 -0.0271 -0.0996
 1208WAT     H2 4895   2.960   1.080   0.884  0.5459  0.1613 -0.0762
 1208WAT    EPW 4896   2.942   1.088   0.969  0.0957  0.0215 -0.1529
 1209WAT      O 4897   1.630   2.598   0.044 -0.3366 -0.4480 -0.1042
 1209WAT     H1 4898   1.689   2.544   0.097  0.7885  0.9128  0.0748
 1209WAT     H2 4899   1.688   2.649  -0.012 -1.3967  0.2889 -0.5553
 1209WAT    EPW 4900   1.646   2.597   0.043 -0.3280 -0.1713 -0.1401
 1210WAT      O 4901   1.416   0.383   3.549 -0.2907  0.2758  0.1792
 1210WAT     H1 4902   1.370   0.416   3.626  1.7640 -0.4934  1.8250
 1210WAT     H2 4903   1.378   0.296   3.535 -0.9166  0.5579  0.0868
 1210WAT    EPW 4904   1.405   0.376   3.557 -0.1022  0.2115  0.3841
 1211WAT      O 4905   3.145   3.681   0.792  0.2448 -0.2496 -0.1145
 1211WAT     H1 4906   3.170   3.771   0.811 -0.3776 -0.3314  1.1528
 1211WAT     H2 4907   3.197   3.628   0.852 -0.6132 -0.6124  0.3254
 1211WAT    EPW 4908   3.155   3.686   0.802  0.0496 -0.3082  0.1107
 1212WAT      O 4909   2.683   3.841   2.327  0.1735  0.6256  0.0625
 1212WAT     H1 4910   2.664   3.908   2.262  0.2112  0.0395 -0.5686
 1212WAT     H2 4911   2.656   3.879   2.410 -3.3511  0.0537 -0.6698
 1212WAT    EPW 4912   2.677   3.855   2.329 -0.2864  0.4728 -0.1173
 1213WAT      O 4913   2.580   0.702   2.792  0.3167 -0.2967 -0.0408
 1213WAT     H1 4914   2.495   0.695   2.747  0.5772 -1.0623 -0.4396
 1213WAT     H2 4915   2.617   0.784   2.760 -0.2315 -0.0025  0.0622
 1213WAT    EPW 4916   2.573   0.712   2.782  0.2788 -0.3589 -0.0798
 1214WAT      O 4917   3.538   2.654   2.010  0.1315  0.5846  0.5133
 1214WAT     H1 4918   3.592   2.702   1.947 -0.8487  1.7345  0.5068
 1214WAT     H2 4919   3.581   2.669   2.095  1.1756 -0.5574  0.2159
 1214WAT    EPW 4920   3.551   2.662   2.013  0.1399  0.5856  0.4732
 1215WAT      O 4921   1.189   1.848   2.287  0.1116 -0.4702 -0.1490
 1215WAT     H1 4922   1.140   1.766   2.290  0.9988 -0.9867  0.8995
 1215WAT     H2 4923   1.180   1.878   2.196 -1.5440 -0.8836 -0.1588
 1215WAT    EPW 4924   1.181   1.841   2.275  0.0103 -0.5928 -0.0120
 1216WAT      O 4925   3.461   2.864   0.582  0.5879  0.2018 -0.1346
 1216WAT     H1 4926   3.501   2.928   0.642 -0.6571 -0.1344  1.1116
 1216WAT     H2 4927   3.393   2.914   0.536 -0.8268 -0.2968  1.3043
 1216WAT    EPW 4928   3.457   2.879   0.584  0.2371  0.0917  0.2196
 1217WAT      O 4929   2.784   1.377   0.852  0.1326 -0.0049 -0.1051
 1217WAT     H1 4930   2.774   1.320   0.776  1.8118 -0.3070 -0.1389
 1217WAT     H2 4931   2.868   1.422   0.837  0.2461  0.3041  1.3240
 1217WAT    EPW 4932   2.794   1.376   0.840  0.3690 -0.0040  0.0789
 1218WAT      O 4933   3.548   3.219   0.570 -0.4702 -0.2651 -0.0170
 1218WAT     H1 4934   3.580   3.233   0.659 -0.5771  0.9782 -0.1480
 1218WAT     H2 4935   3.577   3.297   0.522 -0.4253 -0.9155 -1.0652
 1218WAT    EPW 4936   3.556   3.231   0.575 -0.4784 -0.1869 -0.1725
 1219WAT      O 4937   2.769   3.354   1.506 -0.5075 -0.2003 -0.0929
 1219WAT     H1 4938   2.706   3.300   1.458  1.5652 -2.2742 -0.6361
 1219WAT     H2 4939   2.782   3.306   1.589  2.4010 -1.4570 -1.1475
 1219WAT    EPW 4940   2.762   3.340   1.511  0.1495 -0.6396 -0.3036
 1220WAT      O 4941   3.606   0.064   3.928  0.0767  0.2646 -0.4194
 1220WAT     H1 4942   3.553  -0.001   3.883  1.9286 -0.3362 -1.8677
 1220WAT     H2 4943   3.654   0.014   3.995 -1.8349  0.9724  1.6298
 1220WAT    EPW 4944   3.605   0.049   3.931  0.0689  0.2787 -0.3402
 1221WAT      O 4945   2.546   4.046   2.510 -0.1438 -0.8133 -0.0440
 1221WAT     H1 4946   2.607   4.116   2.488 -0.8462 -0.6468 -1.6201
 1221WAT     H2 4947   2.563   4.027   2.602  1.3105  0.1705 -0.0779
 1221WAT    EPW 4948   2.556   4.053   2.519 -0.0446 -0.6616 -0.2563
 1222WAT      O 4949   3.559   3.402   2.617 -0.3670  0.2865  0.1544
 1222WAT     H1 4950   3.481   3.358   2.585  0.5454 -1.6195  0.4131
 1222WAT     H2 4951   3.558   3.388   2.712  0.7818 -0.6812  0.0534
 1222WAT    EPW 4952   3.549   3.394   2.626 -0.0951 -0.0925  0.1752
 1223WAT      O 4953   2.383   1.792   1.584  0.0264  0.6262  0.0499
 1223WAT     H1 4954   2.463   1.751   1.550 -0.1786  0.5198 -0.3031
 1223WAT     H2 4955   2.415   1.868   1.632  0.4879 -0.3939  1.4408
 1223WAT    EPW 4956   2.398   1.796   1.586  0.0602  0.4776  0.1868
 1224WAT      O 4957   2.918   1.921   2.577 -0.0701 -0.1740 -0.3148
 1224WAT     H1 4958   3.011   1.920   2.599 -0.1091  1.9454  0.1932
 1224WAT     H2 4959   2.916   1.938   2.483  0.0356 -1.8528 -0.6477
 1224WAT    EPW 4960   2.930   1.923   2.568 -0.0613 -0.1159 -0.2917
 1225WAT      O 4961   0.157   2.395   1.491  0.0116  0.1983  0.7419
 1225WAT     H1 4962   0.066   2.377   1.517 -0.0394 -0.2802  0.2379
 1225WAT     H2 4963   0.164   2.490   1.495 -1.0266  0.3733 -0.8899
 1225WAT    EPW 4964   0.146   2.405   1.495 -0.1320  0.1582  0.4602
 1226WAT      O 4965   0.476   1.923   2.383 -0.0277 -0.1450  0.6226
 1226WAT     H1 4966   0.565   1.938   2.416  1.7194 -4.3749 -1.4180
 1226WAT     H2 4967   0.443   1.851   2.437 -1.0031 -0.5837 -0.5308
 1226WAT    EPW 4968   0.484   1.916   2.395  0.0741 -0.7608  0.2013
 1227WAT      O 4969   3.684   3.973   1.298  0.2997 -0.0371  0.2300
 1227WAT     H1 4970   3.626   3.899   1.281 -0.3865  1.0052 -2.4621
 1227WAT     H2 4971   3.762   3.934   1.336 -0.9928 -1.8162  1.2065
 1227WAT    EPW 4972   3.686   3.958   1.301  0.0387 -0.1343  0.0037
 1228WAT      O 4973   0.749   2.155   3.521 -0.4865  0.1297  0.1747
 1228WAT     H1 4974   0.661   2.184   3.542 -0.7735 -1.1441  0.8272
 1228WAT     H2 4975   0.752   2.063   3.549  0.5590 -0.3137 -1.2412
 1228WAT    EPW 4976   0.738   2.147   3.527 -0.3865 -0.0968  0.0740
 1229WAT      O 4977   3.263   0.853   1.320  0.1079 -0.2059 -0.2501
 1229WAT     H1 4978   3.307   0.937   1.330  0.5082 -0.2784 -1.3177
 1229WAT     H2 4979   3.310   0.795   1.380 -0.8891  0.5633  1.3564
 1229WAT    EPW 4980   3.275   0.856   1.329  0.0292 -0.1140 -0.1790
 1230WAT      O 4981   2.510   3.042   0.609  0.5142 -0.1145  0.1527
 1230WAT     H1 4982   2.544   3.048   0.699 -0.6246 -2.7781  0.8645
 1230WAT     H2 4983   2.415   3.042   0.620  0.3326  0.6303 -1.1957
 1230WAT    EPW 4984   2.502   3.042   0.623  0.3400 -0.3676  0.0687
 1231WAT      O 4985   3.480   0.365   3.645  0.3758  0.1608  0.3226
 1231WAT     H1 4986   3.520   0.329   3.725 -0.2814 -0.1244  0.5251
 1231WAT     H2 4987   3.522   0.451   3.635  1.5783 -0.4234  0.1217
 1231WAT    EPW 4988   3.491   0.372   3.654  0.4477  0.0461  0.3228
 1232WAT      O 4989   2.089   4.039   3.763 -0.3392  0.1424  0.0401
 1232WAT     H1 4990   2.058   3.986   3.690 -0.1912 -0.6353  0.5364
 1232WAT     H2 4991   2.012   4.049   3.820  0.2404 -1.7663  1.2579
 1232WAT    EPW 4992   2.075   4.033   3.761 -0.2432 -0.2119  0.2662
 1233WAT      O 4993   2.736   2.462   1.361  0.2806 -0.2419  0.1407
 1233WAT     H1 4994   2.649   2.471   1.400 -0.0073  0.0794 -0.5732
 1233WAT     H2 4995   2.769   2.551   1.356 -0.2893 -0.1055 -1.7092
 1233WAT    EPW 4996   2.729   2.475   1.366  0.1674 -0.1815 -0.1975
 1234WAT      O 4997   1.383   1.658   0.626  0.4013 -0.3334 -0.3380
 1234WAT     H1 4998   1.288   1.670   0.633  0.3183 -0.9050 -0.3705
 1234WAT     H2 4999   1.396   1.565   0.645  1.0481 -0.0770  0.5285
 1234WAT    EPW 5000   1.372   1.647   0.629  0.4757 -0.3750 -0.2280
 1235WAT      O 5001   0.464   1.877   0.796  0.2534  0.0408  0.4312
 1235WAT     H1 5002   0.412   1.856   0.873  0.0286  0.8595  0.5085
 1235WAT     H2 5003   0.400   1.890   0.726  0.3345  1.2320  0.5694
 1235WAT    EPW 5004   0.449   1.876   0.797  0.2344  0.3058  0.4596
 1236WAT      O 5005   0.074   3.318   1.774  0.4179 -0.0976  0.5059
 1236WAT     H1 5006   0.129   3.396   1.761 -0.8294  1.1715  2.2992
 1236WAT     H2 5007   0.001   3.331   1.713  0.6882 -0.3644  0.1213
 1236WAT    EPW 5008   0.071   3.330   1.764  0.2891  0.0346  0.6917
 1237WAT      O 5009   0.138   3.705   3.876 -0.3093 -0.1595  0.0062
 1237WAT     H1 5010   0.211   3.746   3.922  0.5089 -0.2522 -1.1820
 1237WAT     H2 5011   0.110   3.633   3.934  0.8521 -0.4368  0.2399
 1237WAT    EPW 5012   0.144   3.701   3.890 -0.0482 -0.2083 -0.1197
 1238WAT      O 5013   0.708   3.696   0.682  0.3308 -0.5236 -0.1876
 1238WAT     H1 5014   0.663   3.742   0.611  0.7335 -0.8334 -0.6435
 1238WAT     H2 5015   0.681   3.605   0.673  0.5335 -0.5969 -0.0638
 1238WAT    EPW 5016   0.698   3.690   0.672  0.4107 -0.5742 -0.2314
 1239WAT      O 5017   3.506   3.100   0.072 -0.2279 -0.3987 -0.0329
 1239WAT     H1 5018   3.422   3.118   0.115  0.1708 -0.9031  1.0039
 1239WAT     H2 5019   3.572   3.129   0.135  0.4219  1.5126 -1.4919
 1239WAT    EPW 5020   3.504   3.106   0.086 -0.0896 -0.2132 -0.0886
 1240WAT      O 5021   0.375   3.222   2.282 -0.6815 -0.4139  0.4411
 1240WAT     H1 5022   0.409   3.312   2.287  0.9527 -0.8682 -1.3975
 1240WAT     H2 5023   0.422   3.175   2.352 -1.7084  0.1743  1.5584
 1240WAT    EPW 5024   0.386   3.228   2.292 -0.6014 -0.3963  0.3459
 1241WAT      O 5025   1.144   2.604   1.376  0.3180  0.0391  0.3940
 1241WAT     H1 5026   1.127   2.629   1.467 -0.5657  0.3075  0.1685
 1241WAT     H2 5027   1.083   2.658   1.325  0.2798 -0.6430 -0.2989
 1241WAT    EPW 5028   1.134   2.614   1.381  0.1964 -0.0155  0.2729
 1242WAT      O 5029   1.091   3.255   0.775  0.1594 -0.8277  0.4988
 1242WAT     H1 5030   1.087   3.205   0.856 -1.5764  0.8824  1.5241
 1242WAT     H2 5031   1.118   3.343   0.801 -0.8870 -0.1183 -0.6749
 1242WAT    EPW 5032   1.094   3.260   0.789 -0.2075 -0.5086  0.4792
 1243WAT      O 5033   2.087   1.419   2.840  0.0535  0.0578  0.0592
 1243WAT     H1 5034   2.021   1.443   2.775  0.9231 -0.2555 -0.9624
 1243WAT     H2 5035   2.044   1.353   2.894 -1.8356  2.5942  1.9181
 1243WAT    EPW 5036   2.073   1.414   2.839 -0.0810  0.3510  0.1696
 1244WAT      O 5037   3.484   2.181   1.951 -0.2349 -0.0035 -0.1804
 1244WAT     H1 5038   3.512   2.120   1.883 -1.6809  1.7198 -2.4877
 1244WAT     H2 5039   3.564   2.198   2.002  0.8494 -1.5520 -1.2661
 1244WAT    EPW 5040   3.499   2.176   1.949 -0.2826  0.0196 -0.6279
 1245WAT      O 5041   0.476   0.105   3.672 -0.1998 -0.2154  0.5160
 1245WAT     H1 5042   0.483   0.035   3.607 -0.5137  0.8390 -0.6990
 1245WAT     H2 5043   0.426   0.067   3.744 -2.1827 -0.6648 -1.0063
 1245WAT    EPW 5044   0.471   0.091   3.673 -0.5027 -0.1356  0.1549
 1246WAT      O 5045   2.659   3.933   0.581  0.5022 -0.7469 -0.4834
 1246WAT     H1 5046   2.607   3.915   0.660 -0.1545 -0.9874 -0.9554
 1246WAT     H2 5047   2.684   3.846   0.549  1.0718 -0.6374 -0.3478
 1246WAT    EPW 5048   2.655   3.919   0.587  0.4907 -0.7642 -0.5277
 1247WAT      O 5049   0.421   3.989   0.637  0.1098 -0.0970 -0.0153
 1247WAT     H1 5050   0.388   4.018   0.722 -0.8496 -0.0350 -0.3959
 1247WAT     H2 5051   0.355   3.927   0.606  0.6637 -0.4339 -0.5294
 1247WAT    EPW 5052   0.408   3.985   0.644  0.0563 -0.1332 -0.1333
 1248WAT      O 5053   3.423   2.835   2.837  0.0519  0.1654 -0.1349
 1248WAT     H1 5054   3.346   2.887   2.812  0.2087  0.1897 -0.5895
 1248WAT     H2 5055   3.494   2.872   2.784 -0.0441 -1.1850 -1.2566
 1248WAT    EPW 5056   3.423   2.847   2.827  0.0600 -0.0095 -0.3428
 1249WAT      O 5057   1.730   1.285   3.773  0.2428 -0.1528  0.3998
 1249WAT     H1 5058   1.819   1.306   3.803  0.7769  0.8567 -1.7258
 1249WAT     H2 5059   1.684   1.369   3.775 -0.3318 -0.4584  0.3452
 1249WAT    EPW 5060   1.736   1.299   3.777  0.2375 -0.0599  0.1122
 1250WAT      O 5061   3.179   2.882   0.164 -0.2619  0.6758 -0.2947
 1250WAT     H1 5062   3.130   2.901   0.084  0.0119 -0.2998 -0.7164
 1250WAT     H2 5063   3.123   2.822   0.213 -0.7045  1.7545  0.5606
 1250WAT    EPW 5064   3.165   2.876   0.160 -0.2842  0.6894 -0.2375
 1251WAT      O 5065   1.570   1.499   0.956 -0.2836  0.0300 -0.1989
 1251WAT     H1 5066   1.537   1.586   0.935  0.8194  0.5635  0.1966
 1251WAT     H2 5067   1.639   1.514   1.021  1.1109 -0.9602 -1.3495
 1251WAT    EPW 5068   1.575   1.513   0.962  0.0458 -0.0302 -0.2985
 1252WAT      O 5069   2.376   2.966   1.466  0.1402  0.0758 -0.0365
 1252WAT     H1 5070   2.303   2.999   1.519 -0.5969  1.2863 -1.7252
 1252WAT     H2 5071   2.335   2.923   1.391  1.1618 -0.3668 -0.3684
 1252WAT    EPW 5072   2.361   2.965   1.463  0.1777  0.1771 -0.3030
 1253WAT      O 5073   0.174   1.384   0.008  0.4202 -0.0081 -0.5449
 1253WAT     H1 5074   0.162   1.312   0.070 -1.5646 -0.1073 -0.9762
 1253WAT     H2 5075   0.168   1.463   0.062 -0.4342 -0.1142 -0.4731
 1253WAT    EPW 5076   0.172   1.385   0.023  0.0457 -0.0352 -0.5923
 1254WAT      O 5077   1.164   2.498   3.396 -0.4699 -0.0886  0.2024
 1254WAT     H1 5078   1.260   2.501   3.397 -0.4701  0.7829  1.7388
 1254WAT     H2 5079   1.143   2.410   3.427 -0.2369 -1.5454 -3.3714
 1254WAT    EPW 5080   1.174   2.487   3.400 -0.4392 -0.1658 -0.0663
 1255WAT      O 5081   3.247   0.528   2.048 -0.0127  0.1092  0.0987
 1255WAT     H1 5082   3.234   0.614   2.008  0.5922  0.1823  0.0367
 1255WAT     H2 5083   3.198   0.468   1.993 -0.5602  0.4292  0.2235
 1255WAT    EPW 5084   3.239   0.532   2.035 -0.0051  0.1610  0.1070
 1256WAT      O 5085   0.199   3.398   2.847 -0.2313 -0.5468  0.3073
 1256WAT     H1 5086   0.265   3.345   2.893 -1.2719 -1.3676  0.8955
 1256WAT     H2 5087   0.161   3.338   2.783 -1.8076 -0.7163  1.3491
 1256WAT    EPW 5088   0.203   3.383   2.845 -0.5764 -0.6774  0.5223
 1257WAT      O 5089   1.715   1.030   2.318 -0.1216  0.2250  0.4161
 1257WAT     H1 5090   1.808   1.006   2.311 -0.3064 -0.5442  0.5026
 1257WAT     H2 5091   1.693   1.067   2.233 -0.3957 -2.0131 -0.5459
 1257WAT    EPW 5092   1.724   1.032   2.306 -0.1821 -0.1717  0.3006
 1258WAT      O 5093   1.185   3.160   2.680 -0.4906 -0.3364  0.1932
 1258WAT     H1 5094   1.274   3.194   2.684 -0.5971  0.2855 -1.6446
 1258WAT     H2 5095   1.193   3.069   2.709  1.1201 -0.9016 -1.7776
 1258WAT    EPW 5096   1.198   3.152   2.684 -0.2922 -0.3290 -0.3091
 1259WAT      O 5097   0.534   2.206   1.325  0.2995 -0.0227  0.3053
 1259WAT     H1 5098   0.558   2.190   1.234 -1.5183 -0.8477 -0.0701
 1259WAT     H2 5099   0.441   2.230   1.321 -0.0606 -0.9896  2.0072
 1259WAT    EPW 5100   0.525   2.207   1.312  0.0123 -0.2591  0.4802
 1260WAT      O 5101   1.975   4.201   2.910  0.5562 -0.2451 -0.0209
 1260WAT     H1 5102   1.998   4.144   2.983  1.1945 -0.3532 -0.3010
 1260WAT     H2 5103   1.902   4.254   2.943  0.4668 -0.6858  0.4981
 1260WAT    EPW 5104   1.968   4.200   2.924  0.6286 -0.3175  0.0106
 1261WAT      O 5105   0.240   0.613   3.379 -0.4678 -0.2209  0.1260
 1261WAT     H1 5106   0.315   0.665   3.351  0.3538 -0.4650  1.7849
 1261WAT     H2 5107   0.203   0.662   3.452  0.3547 -1.9138  1.7746
 1261WAT    EPW 5108   0.245   0.626   3.385 -0.2509 -0.4764  0.5622
 1262WAT      O 5109   0.701   3.241   1.484  0.1214 -0.4201  0.5942
 1262WAT     H1 5110   0.749   3.287   1.415  1.6806 -2.1806  0.4260
 1262WAT     H2 5111   0.668   3.162   1.441 -0.9571 -0.3781  1.3073
 1262WAT    EPW 5112   0.703   3.236   1.469  0.1848 -0.6468  0.6661
 1263WAT      O 5113   0.300   0.187   0.644  0.3998 -0.2318  0.0938
 1263WAT     H1 5114   0.333   0.115   0.592  0.2833 -0.7698  0.7497
 1263WAT     H2 5115   0.204   0.179   0.641  0.3858 -0.1261  0.1901
 1263WAT    EPW 5116   0.291   0.177   0.637  0.3826 -0.2888  0.1930
 1264WAT      O 5117   3.628   1.284   1.210  0.1929 -0.2499  0.1938
 1264WAT     H1 5118   3.708   1.267   1.260 -0.2895  0.5085  1.2695
 1264WAT     H2 5119   3.652   1.356   1.151  0.3203 -0.0212  0.5151
 1264WAT    EPW 5120   3.642   1.291   1.209  0.1461 -0.1197  0.3781
 1265WAT      O 5121   1.804   1.486   1.098  0.5374  0.3189  0.2423
 1265WAT     H1 5122   1.835   1.576   1.104 -0.1482  0.7058 -1.4920
 1265WAT     H2 5123   1.856   1.447   1.029  0.4892 -0.4857  0.6442
 1265WAT    EPW 5124   1.815   1.492   1.090  0.4406  0.2638  0.0666
 1266WAT      O 5125   1.482   0.106   2.949 -0.3048 -0.7166  0.2368
 1266WAT     H1 5126   1.463   0.109   3.043 -0.0539 -0.6529  0.2865
 1266WAT     H2 5127   1.442   0.185   2.914 -0.1580 -0.5976  0.3364
 1266WAT    EPW 5128   1.475   0.117   2.957 -0.2524 -0.6925  0.2565
 1267WAT      O 5129   0.697   1.873   0.234 -0.5778  0.2001 -0.3922
 1267WAT     H1 5130   0.787   1.857   0.264 -0.8660 -0.1163  0.3421
 1267WAT     H2 5131   0.691   1.824   0.152 -0.4591 -0.8672  0.2062
 1267WAT    EPW 5132   0.708   1.864   0.227 -0.6002  0.0176 -0.2164
 1268WAT      O 5133   0.908   0.788   1.440  0.0848  0.2605 -0.0517
 1268WAT     H1 5134   0.897   0.882   1.454 -0.2401  0.5260 -1.8581
 1268WAT     H2 5135   0.864   0.770   1.356 -0.0694 -1.5497  0.3604
 1268WAT    EPW 5136   0.901   0.798   1.431  0.0216  0.0567 -0.2356
 1269WAT      O 5137   0.492   1.033   2.045  0.4018  0.0849  0.5502
 1269WAT     H1 5138   0.412   1.049   2.095 -1.3517 -2.1369 -1.2959
 1269WAT     H2 5139   0.462   1.022   1.955  2.7151 -1.3859 -0.1329
 1269WAT    EPW 5140   0.478   1.034   2.040  0.4756 -0.4021  0.2166
 1270WAT      O 5141   0.180   3.517   3.623 -0.7787 -0.0745 -0.7957
 1270WAT     H1 5142   0.221   3.464   3.555 -1.2038 -1.3802 -0.0724
 1270WAT     H2 5143   0.252   3.552   3.674 -0.4534 -2.7720  0.7914
 1270WAT    EPW 5144   0.195   3.515   3.620 -0.7919 -0.6025 -0.4910
 1271WAT      O 5145   3.049   4.107   0.512 -0.1550 -0.8490  0.0849
 1271WAT     H1 5146   2.989   4.075   0.444  0.3490 -0.0267 -0.7606
 1271WAT     H2 5147   3.009   4.189   0.542  0.7891 -0.0055 -0.8724
 1271WAT    EPW 5148   3.036   4.114   0.507  0.0360 -0.6293 -0.1529
 1272WAT      O 5149   2.839   2.292   0.644 -0.6357 -0.3267 -0.2860
 1272WAT     H1 5150   2.866   2.320   0.732 -0.4665 -0.8512 -0.1649
 1272WAT     H2 5151   2.882   2.207   0.633 -0.0796  0.0588 -1.1549
 1272WAT    EPW 5152   2.848   2.284   0.654 -0.5400 -0.3450 -0.3846
 1273WAT      O 5153   2.993   3.084   2.729 -0.3302  0.0287  0.3286
 1273WAT     H1 5154   2.975   3.149   2.662  0.7479  0.3235  0.2974
 1273WAT     H2 5155   2.916   3.028   2.731 -0.0728 -0.4837 -1.7282
 1273WAT    EPW 5156   2.981   3.085   2.721 -0.1541 -0.0000  0.0532
 1274WAT      O 5157   1.613   1.785   3.065  0.2407 -0.5170 -0.3864
 1274WAT     H1 5158   1.655   1.870   3.051  1.2065 -1.0087 -0.5943
 1274WAT     H2 5159   1.528   1.792   3.022  0.3047  0.3457 -0.3875
 1274WAT    EPW 5160   1.607   1.797   3.058  0.3765 -0.4681 -0.4140
 1275WAT      O 5161   0.401   3.173   3.801  0.3536 -0.1047 -0.5530
 1275WAT     H1 5162   0.340   3.099   3.803 -0.1280  0.3036  0.4514
 1275WAT     H2 5163   0.432   3.176   3.710 -1.0581 -0.3815 -1.0673
 1275WAT    EPW 5164   0.397   3.164   3.789  0.1039 -0.0874 -0.4884
 1276WAT      O 5165   0.058   3.879   1.622  0.1236 -0.7032  0.0733
 1276WAT     H1 5166  -0.029   3.914   1.606 -0.3837 -0.3967  2.9098
 1276WAT     H2 5167   0.043   3.788   1.649  0.8214 -1.0320 -0.5924
 1276WAT    EPW 5168   0.045   3.872   1.624  0.1487 -0.7062  0.3596
 1277WAT      O 5169   3.178   3.146   3.900 -0.2485 -0.0294 -0.2249
 1277WAT     H1 5170   3.207   3.150   3.992 -0.5815  0.8212 -0.1510
 1277WAT     H2 5171   3.252   3.108   3.854 -0.2284 -0.8626  0.4599
 1277WAT    EPW 5172   3.192   3.142   3.906 -0.2898 -0.0271 -0.1249
 1278WAT      O 5173   1.424   3.332   3.025  0.6575 -0.3774  0.1003
 1278WAT     H1 5174   1.352   3.356   2.966  0.7951  0.0727  0.1097
 1278WAT     H2 5175   1.381   3.316   3.109  0.6722  0.8909  0.3646
 1278WAT    EPW 5176   1.409   3.333   3.028  0.6776 -0.1508  0.1364
 1279WAT      O 5177   1.268   1.065   0.189  0.3406  0.2655  0.5148
 1279WAT     H1 5178   1.176   1.043   0.178 -0.1401  2.1962  0.3727
 1279WAT     H2 5179   1.270   1.124   0.265  1.6223 -0.6639  1.2420
 1279WAT    EPW 5180   1.257   1.070   0.198  0.4462  0.3975  0.5920
 1280WAT      O 5181   0.308   1.818   2.834  0.1479 -0.1432  0.0351
 1280WAT     H1 5182   0.308   1.741   2.890 -0.3291  0.2318  0.5698
 1280WAT     H2 5183   0.320   1.784   2.746 -1.9144 -1.0298  0.0363
 1280WAT    EPW 5184   0.309   1.804   2.830 -0.1870 -0.2107  0.1058
 1281WAT      O 5185   2.785   3.831   0.005  0.1707  0.6745  0.2471
 1281WAT     H1 5186   2.703   3.794   0.037 -0.1495 -0.3331 -1.5909
 1281WAT     H2 5187   2.759   3.909  -0.044  0.2813  0.2908 -0.4328
 1281WAT    EPW 5188   2.771   3.836   0.002  0.1431  0.4910 -0.0850
 1282WAT      O 5189   2.755   2.895   0.546 -0.0113  0.3093 -0.1946
 1282WAT     H1 5190   2.810   2.969   0.570  0.1126  0.0848  0.2308
 1282WAT     H2 5191   2.666   2.929   0.549  0.0437  0.4402  0.0154
 1282WAT    EPW 5192   2.750   2.909   0.550  0.0123  0.2969 -0.1108
 1283WAT      O 5193   0.491   2.298   0.999  0.0481  0.1169 -0.1224
 1283WAT     H1 5194   0.434   2.221   1.005  1.9245 -1.4127 -0.9989
 1283WAT     H2 5195   0.579   2.262   0.988  1.2582  2.3939  1.4651
 1283WAT    EPW 5196   0.495   2.283   0.998  0.4552  0.2155 -0.0286
 1284WAT      O 5197   2.619   3.639   0.992 -0.1133 -0.0063 -0.0862
 1284WAT     H1 5198   2.593   3.547   0.986  1.0556 -0.3110 -1.1815
 1284WAT     H2 5199   2.682   3.642   1.064  0.3741 -0.2274 -0.4909
 1284WAT    EPW 5200   2.624   3.627   1.001  0.1051 -0.0757 -0.2840
 1285WAT      O 5201   2.720   2.272   2.987  0.5745  0.0516  0.3039
 1285WAT     H1 5202   2.685   2.203   2.931 -0.5102  0.5556  0.3268
 1285WAT     H2 5203   2.707   2.352   2.937  0.1164  0.4442  1.0274
 1285WAT    EPW 5204   2.714   2.273   2.973  0.3710  0.1698  0.4024
 1286WAT      O 5205   3.670   2.303   0.746 -0.0927  0.1999 -0.2328
 1286WAT     H1 5206   3.590   2.281   0.793  0.1604  0.2469  0.2229
 1286WAT     H2 5207   3.739   2.302   0.813  0.2596  0.3308 -0.5869
 1286WAT    EPW 5208   3.669   2.300   0.761 -0.0128  0.2233 -0.2194
 1287WAT      O 5209   2.732   0.199   3.087 -0.7144  0.1445  0.1894
 1287WAT     H1 5210   2.659   0.179   3.028 -0.3535 -1.3838  0.2031
 1287WAT     H2 5211   2.710   0.284   3.124 -1.1046  1.0015 -1.8882
 1287WAT    EPW 5212   2.719   0.207   3.084 -0.7183  0.0560 -0.0828
 1288WAT      O 5213   0.238   2.579   1.179 -0.0786  0.3260  0.0028
 1288WAT     H1 5214   0.181   2.647   1.141 -0.2217 -0.1040 -0.5721
 1288WAT     H2 5215   0.188   2.546   1.254 -0.7645 -0.2735 -0.6857
 1288WAT    EPW 5216   0.224   2.584   1.184 -0.1879  0.1902 -0.1639
 1289WAT      O 5217   1.576   2.137   0.751 -0.0488 -0.1582  0.3758
 1289WAT     H1 5218   1.664   2.166   0.774  0.3621 -2.1585  1.5977
 1289WAT     H2 5219   1.556   2.069   0.816 -1.1146 -2.1723 -1.9193
 1289WAT    EPW 5220   1.585   2.132   0.763 -0.1352 -0.6877  0.2343
 1290WAT      O 5221   3.618   3.784   0.971  0.2182  0.1529  0.8219
 1290WAT     H1 5222   3.713   3.790   0.985  0.6713  3.8067 -2.2562
 1290WAT     H2 5223   3.584   3.867   1.006 -1.3716  0.2081 -0.7313
 1290WAT    EPW 5224   3.626   3.796   0.978  0.0683  0.6421  0.2111
 1291WAT      O 5225   3.699   1.894   3.951  0.4497  0.5456  0.3116
 1291WAT     H1 5226   3.643   1.939   3.888 -1.2811 -1.3408  0.3883
 1291WAT     H2 5227   3.788   1.907   3.918 -0.1358  2.2658 -0.7333
 1291WAT    EPW 5228   3.703   1.901   3.938  0.1442  0.5237  0.1839
 1292WAT      O 5229   3.316   2.647   3.847  0.0825 -0.6311 -0.2190
 1292WAT     H1 5230   3.237   2.677   3.803  1.0693 -0.5754 -2.0200
 1292WAT     H2 5231   3.338   2.718   3.908  0.5805  0.8843 -2.0976
 1292WAT    EPW 5232   3.308   2.660   3.849  0.2783 -0.4239 -0.7043
 1293WAT      O 5233   0.399   4.238   0.461 -0.3934 -0.1852  0.2122
 1293WAT     H1 5234   0.454   4.212   0.387  0.7821 -0.2965  1.0894
 1293WAT     H2 5235   0.417   4.172   0.528 -0.8816  0.3249  0.8577
 1293WAT    EPW 5236   0.409   4.226   0.460 -0.3027 -0.1326  0.4130
 1294WAT      O 5237   1.112   2.756   0.487 -0.4803 -0.7111  0.0801
 1294WAT     H1 5238   1.154   2.807   0.418 -0.4551 -0.2400  0.4422
 1294WAT     H2 5239   1.114   2.813   0.564 -2.3728 -0.4051 -0.0406
 1294WAT    EPW 5240   1.118   2.770   0.488 -0.7266 -0.6086  0.1119
 1295WAT      O 5241   3.360   0.354   0.995  0.0420  0.1363 -0.1476
 1295WAT     H1 5242   3.294   0.291   0.964 -1.6435  1.9497 -0.4767
 1295WAT     H2 5243   3.438   0.335   0.942 -0.3506 -1.7516 -0.1078
 1295WAT    EPW 5244   3.362   0.343   0.984 -0.2321  0.1265 -0.1858
 1296WAT      O 5245   0.621   4.163   2.277  0.5528  0.3414 -0.6783
 1296WAT     H1 5246   0.579   4.174   2.192 -2.2899 -1.0239  0.4362
 1296WAT     H2 5247   0.565   4.211   2.338 -0.2436 -2.5280  1.0550
 1296WAT    EPW 5248   0.608   4.171   2.274  0.0728 -0.2172 -0.3027
 1297WAT      O 5249   0.337   1.808   1.724 -0.4631 -0.0992  0.3467
 1297WAT     H1 5250   0.377   1.851   1.648  0.8765 -1.1602  0.4289
 1297WAT     H2 5251   0.310   1.722   1.691 -0.2320 -0.4133  0.9674
 1297WAT    EPW 5252   0.339   1.802   1.709 -0.2559 -0.2805  0.4394
 1298WAT      O 5253   0.937   2.804   2.636 -0.1550  0.4273 -0.1833
 1298WAT     H1 5254   0.877   2.734   2.610  1.5347 -2.1488  2.2969
 1298WAT     H2 5255   0.911   2.825   2.726  1.9491 -0.0856  0.6114
 1298WAT    EPW 5256   0.926   2.798   2.645  0.3454  0.0199  0.2486
 1299WAT      O 5257   0.803   3.390   2.570 -0.1295 -0.7529  0.5965
 1299WAT     H1 5258   0.732   3.335   2.602  1.0548 -1.4909  2.1131
 1299WAT     H2 5259   0.869   3.387   2.640  0.3639  1.9024  0.3555
 1299WAT    EPW 5260   0.803   3.382   2.584  0.0918 -0.5000  0.7647
 1300WAT      O 5261   1.359   2.464   2.294 -0.3479 -0.2000  0.1808
 1300WAT     H1 5262   1.343   2.542   2.347  1.2714 -0.4109  1.0801
 1300WAT     H2 5263   1.430   2.490   2.235 -0.9656 -0.4925 -0.6960
 1300WAT    EPW 5264   1.366   2.478   2.293 -0.2158 -0.2664  0.1838
 1301WAT      O 5265   0.834   3.195   0.652  0.6014 -0.1949  0.1363
 1301WAT     H1 5266   0.925   3.209   0.680  0.4088  0.8219  0.3019
 1301WAT     H2 5267   0.800   3.132   0.714  1.8063 -2.3158 -1.2237
 1301WAT    EPW 5268   0.842   3.189   0.664  0.7349 -0.3405 -0.0213
 1302WAT      O 5269   1.909   3.835   2.178  0.1732 -0.0063 -0.0682
 1302WAT     H1 5270   1.873   3.776   2.111  2.6317 -2.3510  0.4875
 1302WAT     H2 5271   1.968   3.893   2.129  0.4422 -0.3774 -0.1852
 1302WAT    EPW 5272   1.912   3.835   2.162  0.5329 -0.3645 -0.0104
 1303WAT      O 5273   1.604   1.320   3.489 -0.0197 -0.6207 -0.3572
 1303WAT     H1 5274   1.614   1.298   3.582 -0.5309  0.3743 -0.0481
 1303WAT     H2 5275   1.691   1.348   3.462 -0.1254  0.2381  0.1554
 1303WAT    EPW 5276   1.617   1.321   3.498 -0.1010 -0.3762 -0.2488
 1304WAT      O 5277   0.720   0.757   2.960 -1.0017 -1.0316  0.2618
 1304WAT     H1 5278   0.678   0.672   2.944 -1.4090 -0.8203  0.1936
 1304WAT     H2 5279   0.778   0.769   2.885 -2.6527 -0.1998 -0.9479
 1304WAT    EPW 5280   0.722   0.747   2.948 -1.2732 -0.8940  0.0933
 1305WAT      O 5281   1.479   1.541   0.205  0.0523 -0.2201  0.1326
 1305WAT     H1 5282   1.515   1.475   0.264 -1.0018 -2.4149 -1.5112
 1305WAT     H2 5283   1.554   1.570   0.153  0.5459 -0.0810  0.9160
 1305WAT    EPW 5284   1.494   1.536   0.206 -0.0217 -0.4913  0.0191
 1306WAT      O 5285   2.264   0.817   2.824 -0.4058 -0.3802 -0.0894
 1306WAT     H1 5286   2.236   0.744   2.769 -1.2298 -0.6659  0.6781
 1306WAT     H2 5287   2.214   0.892   2.793  0.3214 -0.1627 -0.7716
 1306WAT    EPW 5288   2.254   0.817   2.813 -0.4186 -0.3892 -0.0782
 1307WAT      O 5289   0.137   2.443   2.162 -0.1114 -0.1046  0.0827
 1307WAT     H1 5290   0.106   2.397   2.240 -0.0686 -0.9685 -0.3870
 1307WAT     H2 5291   0.169   2.373   2.105  0.9630  0.6041 -0.2247
 1307WAT    EPW 5292   0.137   2.427   2.165  0.0359 -0.1251 -0.0198
 1308WAT      O 5293   1.425   4.146   3.873  0.1911  0.0134  0.4307
 1308WAT     H1 5294   1.420   4.224   3.819  1.1087  0.4224  0.9205
 1308WAT     H2 5295   1.418   4.178   3.963 -0.2023 -0.5498  0.6087
 1308WAT    EPW 5296   1.423   4.160   3.878  0.2602 -0.0070  0.5188
 1309WAT      O 5297   0.992   3.110   3.888 -0.4299 -0.2169  0.1586
 1309WAT     H1 5298   1.016   3.177   3.824  0.2166 -0.8416 -0.2637
 1309WAT     H2 5299   0.978   3.159   3.969 -1.9868  0.6911 -0.5980
 1309WAT    EPW 5300   0.993   3.125   3.890 -0.5500 -0.1795  0.0031
 1310WAT      O 5301   1.986   0.925   2.816  0.3154  0.4913  0.0012
 1310WAT     H1 5302   1.972   0.920   2.911 -0.2383  0.9361 -0.0501
 1310WAT     H2 5303   2.016   0.837   2.792  0.5839  0.4095  0.6047
 1310WAT    EPW 5304   1.988   0.912   2.825  0.2778  0.5392  0.0740
 1311WAT      O 5305   1.493   2.627   0.992  0.2803  0.5239 -0.4825
 1311WAT     H1 5306   1.569   2.583   0.954 -0.4954  1.0173 -2.8041
 1311WAT     H2 5307   1.423   2.612   0.929 -1.6199  0.0385  1.6101
 1311WAT    EPW 5308   1.494   2.619   0.979 -0.0727  0.5250 -0.5127
 1312WAT      O 5309   2.923   2.594   1.552 -0.4055  0.3429 -0.5190
 1312WAT     H1 5310   2.991   2.650   1.512  1.4800  1.2684  3.5219
 1312WAT     H2 5311   2.898   2.640   1.631  0.5618 -3.9417  2.6267
 1312WAT    EPW 5312   2.929   2.608   1.557 -0.0292 -0.1001  0.4289
 1313WAT      O 5313   3.093   1.776   2.882 -0.0798  0.1441 -0.2987
 1313WAT     H1 5314   3.016   1.832   2.892  0.1451  0.6965 -1.5651
 1313WAT     H2 5315   3.058   1.694   2.846  0.1346  1.1640 -3.0463
 1313WAT    EPW 5316   3.078   1.772   2.879 -0.0218  0.3515 -0.8281
 1314WAT      O 5317   1.212   3.200   0.418 -0.0630 -0.1590 -0.2994
 1314WAT     H1 5318   1.135   3.257   0.411 -0.5469 -0.5857  1.2571
 1314WAT     H2 5319   1.273   3.235   0.353 -1.5652  0.1625 -1.6118
 1314WAT    EPW 5320   1.210   3.212   0.408 -0.3249 -0.1729 -0.2672
 1315WAT      O 5321   0.468   2.226   0.294  0.2331 -0.2302 -0.2604
 1315WAT     H1 5322   0.400   2.167   0.262 -0.7449  0.0087  1.2716
 1315WAT     H2 5323   0.487   2.196   0.383  0.3701  1.1914  0.2226
 1315WAT    EPW 5324   0.462   2.214   0.301  0.1222 -0.0112  0.0053
 1316WAT      O 5325   2.554   2.595   2.626 -0.2492  0.5775 -0.1140
 1316WAT     H1 5326   2.582   2.651   2.553 -1.2320  0.1796 -0.8198
 1316WAT     H2 5327   2.580   2.507   2.598  0.8684  0.5959  0.7809
 1316WAT    EPW 5328   2.561   2.591   2.612 -0.2315  0.5274 -0.0890
 1317WAT      O 5329   1.064   2.344   1.392 -0.0682 -0.4827 -0.0702
 1317WAT     H1 5330   1.103   2.429   1.375  0.5412 -1.0544 -1.7648
 1317WAT     H2 5331   0.971   2.363   1.407  0.0589  0.4707 -0.4309
 1317WAT    EPW 5332   1.057   2.357   1.392  0.0289 -0.4323 -0.3413
 1318WAT      O 5333   3.382   0.243   0.307  0.0912  0.0537 -0.3799
 1318WAT     H1 5334   3.355   0.164   0.260  2.0324 -1.6052  1.1062
 1318WAT     H2 5335   3.466   0.267   0.269  1.2971 -0.8357  1.5935
 1318WAT    EPW 5336   3.389   0.236   0.296  0.5063 -0.2824  0.0764
 1319WAT      O 5337   0.636   0.894   3.469  0.4691  0.2497  0.1486
 1319WAT     H1 5338   0.564   0.837   3.495  1.5002 -1.0252  0.2975
 1319WAT     H2 5339   0.618   0.914   3.377 -0.9272  1.3060  0.6202
 1319WAT    EPW 5340   0.624   0.889   3.460  0.4209  0.2209  0.2305
 1320WAT      O 5341   2.140   1.923   1.872 -0.4534 -0.2144  0.1515
 1320WAT     H1 5342   2.111   1.852   1.815  0.4300 -1.3119  1.0148
 1320WAT     H2 5343   2.120   1.892   1.960  0.7501  0.1989  0.5908
 1320WAT    EPW 5344   2.134   1.910   1.876 -0.1782 -0.3047  0.3233
 1321WAT      O 5345   2.612   3.136   1.378  0.0969 -0.4395 -0.2158
 1321WAT     H1 5346   2.582   3.139   1.287 -1.4640  2.8645  0.2478
 1321WAT     H2 5347   2.557   3.068   1.418  0.6700 -1.8068 -1.6248
 1321WAT    EPW 5348   2.601   3.127   1.371 -0.0334 -0.1841 -0.3405
 1322WAT      O 5349   0.335   2.488   1.835 -0.0004 -0.6674 -0.8070
 1322WAT     H1 5350   0.249   2.505   1.795  0.6541  0.6117 -1.7312
 1322WAT     H2 5351   0.317   2.421   1.901 -1.5864 -0.9533 -1.4683
 1322WAT    EPW 5352   0.321   2.481   1.838 -0.1232 -0.5364 -1.0161
 1323WAT      O 5353   3.431   3.257   0.905 -0.2766 -0.4122 -0.4959
 1323WAT     H1 5354   3.485   3.329   0.874 -1.1870 -0.4877 -2.4167
 1323WAT     H2 5355   3.483   3.178   0.886  0.4570 -0.3396  1.0466
 1323WAT    EPW 5356   3.445   3.256   0.898 -0.3000 -0.4126 -0.5458
 1324WAT      O 5357   1.747   1.542   0.603  0.3721  0.8068  0.2231
 1324WAT     H1 5358   1.837   1.511   0.607 -0.2850 -1.3277 -0.3491
 1324WAT     H2 5359   1.740   1.587   0.519  0.8075  0.6014  0.0770
 1324WAT    EPW 5360   1.758   1.544   0.593  0.3428  0.4982  0.1283
 1325WAT      O 5361   1.041   0.247   1.856 -0.0752  0.1259  0.3509
 1325WAT     H1 5362   1.117   0.305   1.864  1.6827 -1.9424 -0.2653
 1325WAT     H2 5363   1.007   0.240   1.946 -0.2571  1.9370  0.4526
 1325WAT    EPW 5364   1.047   0.253   1.869  0.1326  0.0920  0.2831
 1326WAT      O 5365   1.943   2.792   2.539 -1.1828 -0.3070  0.4161
 1326WAT     H1 5366   1.894   2.825   2.614 -1.8783  2.1078 -0.9844
 1326WAT     H2 5367   1.877   2.747   2.486 -1.0031 -0.7465  0.5701
 1326WAT    EPW 5368   1.928   2.791   2.542 -1.2508 -0.0465  0.2517
 1327WAT      O 5369   1.112   1.749   0.548 -0.1061  0.1052 -0.2288
 1327WAT     H1 5370   1.120   1.803   0.627  0.1062 -0.9023  0.4553
 1327WAT     H2 5371   1.017   1.744   0.533 -0.1007  1.2294 -0.7083
 1327WAT    EPW 5372   1.100   1.755   0.557 -0.0774  0.1206 -0.2018
 1328WAT      O 5373   1.628   2.001   1.001 -0.1429  0.3202  0.7591
 1328WAT     H1 5374   1.612   1.955   1.083 -0.6632  1.2646  1.2084
 1328WAT     H2 5375   1.631   1.932   0.935  3.3360 -0.7916  1.8950
 1328WAT    EPW 5376   1.626   1.986   1.003  0.2473  0.2981  0.9682
 1329WAT      O 5377   2.745   3.638   0.484 -0.3550  0.1523 -0.5359
 1329WAT     H1 5378   2.692   3.579   0.431 -2.5760  0.9667  0.6737
 1329WAT     H2 5379   2.791   3.580   0.545 -2.8093 -0.4215  0.9116
 1329WAT    EPW 5380   2.744   3.623   0.485 -0.9717  0.1840 -0.1854
 1330WAT      O 5381   0.702   4.098   0.690  0.1558  0.2142 -0.1026
 1330WAT     H1 5382   0.697   4.171   0.628 -0.1277  0.7217  0.5034
 1330WAT     H2 5383   0.624   4.046   0.672 -1.2447  1.6711  1.4078
 1330WAT    EPW 5384   0.691   4.101   0.679 -0.0663  0.4733  0.1765
 1331WAT      O 5385   2.911   1.609   1.929 -0.6018 -0.1572  0.0863
 1331WAT     H1 5386   2.961   1.556   1.866  0.1311  1.1367 -0.4618
 1331WAT     H2 5387   2.822   1.572   1.926 -0.6492 -0.0129 -1.8895
 1331WAT    EPW 5388   2.906   1.597   1.920 -0.5114  0.0325 -0.2466
 1332WAT      O 5389   2.738   1.968   0.297  0.3103 -0.7957  0.6303
 1332WAT     H1 5390   2.646   1.942   0.308  0.1556 -0.5550 -0.0509
 1332WAT     H2 5391   2.764   1.927   0.214  0.7857 -0.7638  0.7637
 1332WAT    EPW 5392   2.729   1.959   0.288  0.3526 -0.7597  0.5581
 1333WAT      O 5393   3.298   0.798   0.994  0.1502  0.2733  0.7162
 1333WAT     H1 5394   3.297   0.859   1.069 -2.2814  0.7705  0.3640
 1333WAT     H2 5395   3.358   0.838   0.932 -1.8685  2.7703  0.2247
 1333WAT    EPW 5396   3.306   0.811   0.996 -0.4368  0.6682  0.6049
 1334WAT      O 5397   0.826   3.927   1.780  0.4738  0.0535 -0.3734
 1334WAT     H1 5398   0.914   3.890   1.791  0.5415  0.5223  0.8411
 1334WAT     H2 5399   0.829   3.973   1.696  0.9585 -1.0854 -1.0010
 1334WAT    EPW 5400   0.838   3.928   1.770  0.5466 -0.0349 -0.2960
 1335WAT      O 5401   1.708   0.742   0.585 -0.3666 -0.4528  0.2797
 1335WAT     H1 5402   1.757   0.667   0.619  0.6687  0.5650  1.0929
 1335WAT     H2 5403   1.740   0.752   0.495 -0.1406 -0.6711  0.3347
 1335WAT    EPW 5404   1.718   0.733   0.577 -0.2003 -0.3474  0.3942
 1336WAT      O 5405   0.592   3.944   1.532  0.0314 -0.2963  0.3137
 1336WAT     H1 5406   0.634   4.021   1.571 -0.8238  0.6398 -0.5373
 1336WAT     H2 5407   0.575   3.969   1.441 -1.2196 -1.0861  0.2991
 1336WAT    EPW 5408   0.595   3.958   1.525 -0.2464 -0.2770  0.1995
 1337WAT      O 5409   0.804   1.350   1.350  0.6293 -0.1564 -0.0451
 1337WAT     H1 5410   0.747   1.366   1.426  0.3510  0.1751 -0.3196
 1337WAT     H2 5411   0.795   1.429   1.297  0.8937 -0.3508 -0.3794
 1337WAT    EPW 5412   0.795   1.362   1.353  0.6274 -0.1383 -0.1254
 1338WAT      O 5413   1.814   2.528   1.402  0.3232  0.3060 -1.1792
 1338WAT     H1 5414   1.833   2.621   1.396  1.3087  0.0275 -3.2548
 1338WAT     H2 5415   1.885   2.486   1.354  0.5825 -1.6254  0.7527
 1338WAT    EPW 5416   1.826   2.535   1.395  0.4874  0.0145 -1.1982
 1339WAT      O 5417   1.381   0.317   1.273 -0.4929  0.2560 -0.4369
 1339WAT     H1 5418   1.319   0.266   1.325  0.8585  0.0554  1.0912
 1339WAT     H2 5419   1.466   0.280   1.296  0.3124  1.4745 -1.3332
 1339WAT    EPW 5420   1.384   0.305   1.283 -0.2084  0.3902 -0.3536
 1340WAT      O 5421   3.104   2.645   1.971  0.1466 -0.0091  0.1478
 1340WAT     H1 5422   3.121   2.732   1.936  1.0733 -0.1654  0.1781
 1340WAT     H2 5423   3.040   2.658   2.041 -0.6505  0.4872 -0.6470
 1340WAT    EPW 5424   3.098   2.658   1.975  0.1637  0.0358  0.0470
 1341WAT      O 5425   1.438   0.570   0.937 -0.0697 -0.0420  0.1828
 1341WAT     H1 5426   1.352   0.577   0.896 -0.4544  0.8959  1.0799
 1341WAT     H2 5427   1.484   0.649   0.909  0.2021 -0.1444  0.3379
 1341WAT    EPW 5428   1.432   0.581   0.928 -0.0846  0.0682  0.3216
 1342WAT      O 5429   0.446   2.074   2.925  0.2606 -0.1051 -0.3246
 1342WAT     H1 5430   0.384   2.008   2.896  1.6684 -1.9771  0.7073
 1342WAT     H2 5431   0.451   2.063   3.020 -0.0737  2.0830 -0.0013
 1342WAT    EPW 5432   0.439   2.064   2.934  0.4022 -0.0634 -0.1459
 1343WAT      O 5433   1.919   2.336   0.586 -0.0367 -0.4214  0.2183
 1343WAT     H1 5434   1.887   2.269   0.646 -0.2531 -0.9259 -0.4460
 1343WAT     H2 5435   1.914   2.295   0.500 -2.4115  1.2205 -0.5299
 1343WAT    EPW 5436   1.914   2.322   0.583 -0.3785 -0.2714  0.0320
 1344WAT      O 5437   1.664   1.796   1.970 -0.5689  0.1483 -0.4663
 1344WAT     H1 5438   1.654   1.857   1.897  0.0345  0.7013 -0.0952
 1344WAT     H2 5439   1.701   1.849   2.041 -2.0448 -0.1500  0.5643
 1344WAT    EPW 5440   1.668   1.811   1.969 -0.6840  0.1819 -0.2814
 1345WAT      O 5441   2.027   1.330   0.990 -0.1722  0.4702 -0.3905
 1345WAT     H1 5442   2.028   1.370   0.903 -1.6831  0.8049 -0.2864
 1345WAT     H2 5443   1.990   1.243   0.976 -0.7356  0.6499 -0.0461
 1345WAT    EPW 5444   2.022   1.324   0.977 -0.4458  0.5380 -0.3313
 1346WAT      O 5445   1.279   0.060   2.076 -0.2137  0.9673  0.1834
 1346WAT     H1 5446   1.271  -0.031   2.103 -1.2559  0.7565 -0.7808
 1346WAT     H2 5447   1.201   0.103   2.112 -0.4786  1.1508 -0.5832
 1346WAT    EPW 5448   1.268   0.054   2.084 -0.3861  0.9637 -0.0449
 1347WAT      O 5449   0.035   1.476   2.459  0.2541  0.0571 -0.3476
 1347WAT     H1 5450   0.042   1.511   2.548 -0.3177  1.8319 -0.9637
 1347WAT     H2 5451   0.073   1.389   2.465  0.3654  0.1955  1.6056
 1347WAT    EPW 5452   0.041   1.469   2.471  0.1934  0.3095 -0.1713
 1348WAT      O 5453   1.618   3.105   0.519 -0.6328  0.0330  0.1420
 1348WAT     H1 5454   1.697   3.092   0.571  0.4512  1.3553 -1.0744
 1348WAT     H2 5455   1.627   3.194   0.485 -0.0076 -1.4745 -4.2937
 1348WAT    EPW 5456   1.630   3.115   0.521 -0.4074  0.0086 -0.6035
 1349WAT      O 5457   1.954   2.863   0.140 -0.7511  0.2054  0.6882
 1349WAT     H1 5458   1.895   2.834   0.071  1.1898 -0.5583 -0.7492
 1349WAT     H2 5459   1.979   2.952   0.115  2.2206 -1.0557 -1.3597
 1349WAT    EPW 5460   1.950   2.871   0.128 -0.1031 -0.0617  0.2285
 1350WAT      O 5461   0.430   1.748   0.041  0.0814 -0.6057 -0.0769
 1350WAT     H1 5462   0.380   1.708   0.112 -0.2441  0.0170  0.0529
 1350WAT     H2 5463   0.364   1.780  -0.021  0.1969  1.7871  0.9306
 1350WAT    EPW 5464   0.415   1.747   0.042  0.0537 -0.2080  0.0731
 1351WAT      O 5465   1.079   4.082   0.916  0.3199 -0.1583 -0.2407
 1351WAT     H1 5466   1.169   4.079   0.950  0.1383 -0.7333  0.2053
 1351WAT     H2 5467   1.036   4.149   0.969  0.4190 -0.0527 -0.2927
 1351WAT    EPW 5468   1.085   4.090   0.928  0.3090 -0.2202 -0.1887
 1352WAT      O 5469   0.629   1.190   2.747  0.0151 -0.2299 -0.2640
 1352WAT     H1 5470   0.597   1.262   2.693  1.6682 -1.3591 -2.9819
 1352WAT     H2 5471   0.698   1.228   2.800 -0.3569  0.5477 -0.3227
 1352WAT    EPW 5472   0.634   1.204   2.747  0.1841 -0.2762 -0.6302
 1353WAT      O 5473   0.243   1.841   3.815  0.0306 -0.3732  0.5420
 1353WAT     H1 5474   0.255   1.752   3.782  0.2834 -1.1232  2.4806
 1353WAT     H2 5475   0.328   1.883   3.803  0.4739 -1.0267  1.3324
 1353WAT    EPW 5476   0.256   1.835   3.809  0.1224 -0.5583  0.9020
 1354WAT      O 5477   2.149   2.021   3.974  0.1096 -0.1600  1.1088
 1354WAT     H1 5478   2.176   1.930   3.963  2.2256  0.3147  1.9043
 1354WAT     H2 5479   2.053   2.017   3.975 -0.0393 -1.9081 -2.5232
 1354WAT    EPW 5480   2.140   2.008   3.972  0.3691 -0.3280  0.7347
 1355WAT      O 5481   1.236   1.253   0.899 -0.1855 -0.0905  0.6440
 1355WAT     H1 5482   1.159   1.270   0.953 -2.2791  0.7522 -2.3299
 1355WAT     H2 5483   1.215   1.171   0.853  1.1402 -0.3728  0.5016
 1355WAT    EPW 5484   1.223   1.244   0.900 -0.2868 -0.0166  0.2329
 1356WAT      O 5485   2.969   0.721   3.031  0.1178 -0.0058 -0.2671
 1356WAT     H1 5486   2.921   0.704   2.950 -0.0367  1.7580 -0.5695
 1356WAT     H2 5487   2.915   0.783   3.079  0.7841 -0.1095  0.6457
 1356WAT    EPW 5488   2.956   0.727   3.027  0.1853  0.2131 -0.1866
 1357WAT      O 5489   1.661   0.995   1.531  0.0037 -0.2146 -0.1402
 1357WAT     H1 5490   1.567   0.976   1.536 -0.6058  2.2463 -0.7580
 1357WAT     H2 5491   1.672   1.072   1.587  1.4195  0.2958 -1.0698
 1357WAT    EPW 5492   1.650   1.003   1.539  0.1100  0.1773 -0.3443
 1358WAT      O 5493   0.207   1.032   2.698  0.0655  0.1214 -0.1029
 1358WAT     H1 5494   0.124   1.060   2.737 -0.0342  0.7671 -0.7536
 1358WAT     H2 5495   0.274   1.057   2.763 -0.1407  0.7500 -0.1254
 1358WAT    EPW 5496   0.205   1.039   2.712  0.0252  0.2894 -0.1917
 1359WAT      O 5497   2.145   1.033   0.024 -0.1124  0.1377 -0.0543
 1359WAT     H1 5498   2.221   0.995   0.069  0.5640  1.0809 -0.3489
 1359WAT     H2 5499   2.177   1.051  -0.065 -0.5736  0.8762 -0.0745
 1359WAT    EPW 5500   2.159   1.030   0.018 -0.0840  0.3595 -0.0958
 1360WAT      O 5501   1.122   3.479   3.077  0.5797  0.0396  0.8617
 1360WAT     H1 5502   1.076   3.463   3.159  1.5480  2.4486  1.9780
 1360WAT     H2 5503   1.054   3.506   3.016 -0.5010 -3.9498  0.0424
 1360WAT    EPW 5504   1.107   3.480   3.080  0.5648 -0.1689  0.9009
 1361WAT      O 5505   0.080   4.081   2.188  0.3202 -0.2395 -0.2592
 1361WAT     H1 5506   0.122   4.098   2.104 -0.2188  1.2478 -0.2629
 1361WAT     H2 5507   0.044   3.992   2.179  1.7984 -0.8099 -0.9135
 1361WAT    EPW 5508   0.080   4.071   2.176  0.4440 -0.1186 -0.3460
 1362WAT      O 5509   3.078   2.649   0.752 -0.1451 -0.2794 -0.5903
 1362WAT     H1 5510   3.060   2.569   0.801  0.5322 -1.8101 -2.6936
 1362WAT     H2 5511   3.011   2.650   0.684  1.5493 -0.6343 -2.3313
 1362WAT    EPW 5512   3.067   2.639   0.750  0.1677 -0.5281 -1.0974
 1363WAT      O 5513   0.127   1.726   1.122  0.5817 -0.5379 -0.2468
 1363WAT     H1 5514   0.172   1.690   1.198  0.8659  0.8273  0.2651
 1363WAT     H2 5515   0.059   1.783   1.160 -0.2515 -0.9898 -1.0213
 1363WAT    EPW 5516   0.124   1.729   1.137  0.5093 -0.4175 -0.2815
 1364WAT      O 5517   3.023   2.487   2.862  0.0624  0.2152  0.3312
 1364WAT     H1 5518   3.103   2.435   2.853 -0.0412  0.1869 -0.4920
 1364WAT     H2 5519   3.051   2.564   2.911  1.1058  1.2192 -1.6990
 1364WAT    EPW 5520   3.038   2.490   2.867  0.1863  0.3439 -0.0452
 1365WAT      O 5521   1.945   2.554   2.697 -0.1282 -0.0344  0.6815
 1365WAT     H1 5522   1.914   2.634   2.655 -0.3622  0.7062  2.2311
 1365WAT     H2 5523   2.030   2.538   2.655 -1.6430 -1.0907 -2.2940
 1365WAT    EPW 5524   1.952   2.562   2.686 -0.3588 -0.0761  0.4934
 1366WAT      O 5525   0.324   1.716   2.564  0.2560 -0.2046 -0.0161
 1366WAT     H1 5526   0.350   1.625   2.551 -0.3187 -0.4699  0.5933
 1366WAT     H2 5527   0.252   1.729   2.502  1.0642  0.1840 -0.8951
 1366WAT    EPW 5528   0.318   1.706   2.554  0.2868 -0.1883 -0.0516
 1367WAT      O 5529   0.008   1.483   0.998 -0.6005 -0.4373 -0.2553
 1367WAT     H1 5530   0.089   1.439   0.972 -0.1995  0.2682 -0.2337
 1367WAT     H2 5531   0.034   1.574   1.012 -1.7036  0.1428 -1.7278
 1367WAT    EPW 5532   0.022   1.489   0.997 -0.6931 -0.2677 -0.4467
 1368WAT      O 5533   1.899   0.771   3.361  0.3037  0.2185  0.0145
 1368WAT     H1 5534   1.899   0.845   3.421 -0.7600  0.0700  0.2167
 1368WAT     H2 5535   1.825   0.717   3.389  2.0559 -1.8250  0.9498
 1368WAT    EPW 5536   1.889   0.774   3.372  0.3945 -0.0706  0.1645
 1369WAT      O 5537   1.136   0.994   1.839  0.8188  0.1631  0.3422
 1369WAT     H1 5538   1.182   1.077   1.843  1.2914  0.2092 -3.2323
 1369WAT     H2 5539   1.166   0.953   1.758 -1.8545 -1.9751  0.2674
 1369WAT    EPW 5540   1.146   0.999   1.829  0.5286 -0.1129 -0.1391
 1370WAT      O 5541   3.012   0.983   2.930  0.6451 -0.2151 -0.2370
 1370WAT     H1 5542   2.979   0.894   2.942 -1.4467  0.2282 -2.0803
 1370WAT     H2 5543   3.012   0.996   2.835  1.0269  1.6941 -0.0118
 1370WAT    EPW 5544   3.007   0.973   2.919  0.4195  0.0952 -0.4504
 1371WAT      O 5545   3.399   2.713   1.637 -0.9002  0.5750  0.9168
 1371WAT     H1 5546   3.463   2.778   1.667 -0.3588 -0.2054  1.4692
 1371WAT     H2 5547   3.432   2.685   1.551 -0.4614  0.1220  1.2322
 1371WAT    EPW 5548   3.412   2.718   1.629 -0.7709  0.4123  1.0313
 1372WAT      O 5549   0.695   1.242   2.059 -0.3494  0.1310 -0.2391
 1372WAT     H1 5550   0.674   1.333   2.040 -1.1055 -0.4596 -2.5186
 1372WAT     H2 5551   0.611   1.196   2.055 -0.0384 -0.6318  1.2894
 1372WAT    EPW 5552   0.682   1.248   2.056 -0.4081 -0.0475 -0.3381
 1373WAT      O 5553   0.695   2.015   2.811 -0.0172 -0.2233 -0.0162
 1373WAT     H1 5554   0.685   2.018   2.716  1.9296  1.1691 -0.2226
 1373WAT     H2 5555   0.605   2.025   2.844 -0.7972 -1.3010 -1.6709
 1373WAT    EPW 5556   0.682   2.017   2.803  0.1367 -0.1818 -0.2616
 1374WAT      O 5557   3.210   0.096   0.925 -0.0582 -0.6718 -0.3092
 1374WAT     H1 5558   3.118   0.114   0.905  0.1164  0.7590  0.0557
 1374WAT     H2 5559   3.217   0.106   1.020  0.4166 -1.1187 -0.2895
 1374WAT    EPW 5560   3.199   0.100   0.935  0.0274 -0.5421 -0.2585
 1375WAT      O 5561   2.595   0.497   0.248 -0.1449 -0.2666  0.1080
 1375WAT     H1 5562   2.657   0.459   0.310 -0.4670 -0.8970  0.0511
 1375WAT     H2 5563   2.524   0.530   0.302  0.4196  0.8137  0.2028
 1375WAT    EPW 5564   2.594   0.496   0.263 -0.1129 -0.2073  0.1130
 1376WAT      O 5565   1.697   3.128   1.918 -0.0525  0.6317 -0.1891
 1376WAT     H1 5566   1.639   3.189   1.872  0.6238  2.3136  1.0952
 1376WAT     H2 5567   1.739   3.078   1.848 -0.3233  1.9294 -1.3226
 1376WAT    EPW 5568   1.695   3.130   1.903  0.0010  1.0247 -0.1692
 1377WAT      O 5569   3.276   0.168   3.764 -0.2266  0.1967 -0.7552
 1377WAT     H1 5570   3.313   0.246   3.723  0.2152  0.6074  0.3821
 1377WAT     H2 5571   3.245   0.198   3.850  3.1671 -1.4920  1.2886
 1377WAT    EPW 5572   3.276   0.182   3.770  0.2793  0.0281 -0.3356
 1378WAT      O 5573   0.832   1.559   0.722  0.3360  0.7025 -0.1628
 1378WAT     H1 5574   0.920   1.523   0.708  0.6128  1.3236 -0.0787
 1378WAT     H2 5575   0.819   1.617   0.647 -0.2930  0.0832 -0.5432
 1378WAT    EPW 5576   0.842   1.562   0.710  0.2896  0.7027 -0.2019
 1379WAT      O 5577   2.968   3.816   2.235  0.2338  0.2665  0.6258
 1379WAT     H1 5578   3.016   3.736   2.259  0.6000  0.7126  1.4115
 1379WAT     H2 5579   2.881   3.803   2.272 -0.2463 -0.4842 -0.6847
 1379WAT    EPW 5580   2.963   3.804   2.243  0.2188  0.2263  0.5566
 1380WAT      O 5581   1.444   0.660   2.072 -0.2868  0.2874 -0.1466
 1380WAT     H1 5582   1.527   0.698   2.101 -1.5647  1.4023  2.3389
 1380WAT     H2 5583   1.468   0.607   1.996  2.7597  0.2095  0.7133
 1380WAT    EPW 5584   1.458   0.658   2.066 -0.0535  0.4242  0.2946
 1381WAT      O 5585   3.207   1.786   3.312 -0.6204 -0.3085 -0.2460
 1381WAT     H1 5586   3.214   1.879   3.292 -2.7026 -0.2185 -0.7400
 1381WAT     H2 5587   3.227   1.742   3.229  0.5603 -0.3383  0.0361
 1381WAT    EPW 5588   3.211   1.792   3.298 -0.7393 -0.3006 -0.2740
 1382WAT      O 5589   0.221   0.736   1.751  0.5021 -0.2538 -0.2979
 1382WAT     H1 5590   0.191   0.655   1.710  0.1244 -0.7879  0.9829
 1382WAT     H2 5591   0.143   0.790   1.759  1.1435  1.4081 -3.5204
 1382WAT    EPW 5592   0.207   0.733   1.747  0.5369 -0.1050 -0.5540
 1383WAT      O 5593   2.463   1.849   3.695 -0.4376 -0.7144  0.2889
 1383WAT     H1 5594   2.558   1.855   3.679 -0.3892  0.3157  0.8988
 1383WAT     H2 5595   2.455   1.848   3.790 -1.1290  1.1877  0.2917
 1383WAT    EPW 5596   2.475   1.850   3.705 -0.5224 -0.3276  0.3697
 1384WAT      O 5597   3.410   2.834   0.022  0.7685 -0.3610  0.9088
 1384WAT     H1 5598   3.333   2.832   0.079 -0.1645 -0.1838 -0.3200
 1384WAT     H2 5599   3.466   2.901   0.062  0.5991 -0.9432  2.1814
 1384WAT    EPW 5600   3.407   2.843   0.035  0.6231 -0.4144  0.9146
 1385WAT      O 5601   2.364   4.119   3.822  0.4033 -0.1871 -0.3785
 1385WAT     H1 5602   2.272   4.105   3.799  0.4644 -1.3285  0.0006
 1385WAT     H2 5603   2.363   4.142   3.915  0.4556  0.4625 -0.5352
 1385WAT    EPW 5604   2.352   4.120   3.831  0.4182 -0.2520 -0.3492
 1386WAT      O 5605   2.484   2.290   3.127  0.3911  0.7350 -0.0155
 1386WAT     H1 5606   2.409   2.335   3.089 -0.6374 -0.5737  0.3802
 1386WAT     H2 5607   2.541   2.272   3.052  0.2611  1.6173 -0.3422
 1386WAT    EPW 5608   2.482   2.293   3.112  0.2383  0.6788 -0.0064
 1387WAT      O 5609   1.974   2.664   2.198  0.4361  0.0338  0.0315
 1387WAT     H1 5610   2.041   2.638   2.134 -0.4622 -0.4960 -0.7158
 1387WAT     H2 5611   1.983   2.759   2.203  0.8767  0.0280 -0.4845
 1387WAT    EPW 5612   1.984   2.673   2.190  0.3758 -0.0368 -0.1351
 1388WAT      O 5613   0.495   3.449   3.253 -0.2984 -0.3376 -0.3239
 1388WAT     H1 5614   0.517   3.363   3.219  0.9047  0.2696 -1.1522
 1388WAT     H2 5615   0.441   3.488   3.184  0.4377  0.1363 -0.6367
 1388WAT    EPW 5616   0.491   3.443   3.239 -0.0426 -0.1950 -0.4744
 1389WAT      O 5617   1.521   0.208   0.541 -0.3638  0.4775 -0.0565
 1389WAT     H1 5618   1.465   0.217   0.463 -1.2217  0.0968  0.5034
 1389WAT     H2 5619   1.511   0.292   0.587 -0.1825  0.5467 -0.1421
 1389WAT    EPW 5620   1.512   0.221   0.537 -0.4530  0.4364  0.0060
 1390WAT      O 5621   1.969   2.087   3.050 -0.6388  1.0136 -0.7803
 1390WAT     H1 5622   2.001   2.177   3.052 -0.5488  0.9712  0.2330
 1390WAT     H2 5623   1.873   2.095   3.048 -0.8288  1.2087  2.6437
 1390WAT    EPW 5624   1.960   2.100   3.050 -0.6520  1.0337 -0.1951
 1391WAT      O 5625   2.119   2.727   3.820  0.6452 -0.2858  0.5777
 1391WAT     H1 5626   2.151   2.747   3.732  0.3031 -1.8015  0.0845
 1391WAT     H2 5627   2.192   2.749   3.877  1.5382 -0.9875 -0.2594
 1391WAT    EPW 5628   2.132   2.732   3.816  0.7178 -0.5783  0.4023
 1392WAT      O 5629   1.395   1.882   2.054 -0.5074  0.1948  0.6270
 1392WAT     H1 5630   1.481   1.847   2.031 -0.9689  0.3184 -1.4347
 1392WAT     H2 5631   1.415   1.957   2.111  1.0843  2.6054 -2.7390
 1392WAT    EPW 5632   1.409   1.887   2.058 -0.3583  0.5290 -0.0889
 1393WAT      O 5633   2.781   1.396   0.126 -0.0023 -0.2764  0.2661
 1393WAT     H1 5634   2.780   1.373   0.219 -0.5942  2.0083  0.9061
 1393WAT     H2 5635   2.874   1.401   0.103  0.1697 -0.0049  0.9903
 1393WAT    EPW 5636   2.793   1.394   0.135 -0.0577  0.0608  0.4460
 1394WAT      O 5637   3.353   3.767   3.586 -0.6485 -0.0473 -0.5147
 1394WAT     H1 5638   3.415   3.809   3.645 -0.0470 -0.3332 -0.9309
 1394WAT     H2 5639   3.324   3.837   3.527  1.4423 -0.4480 -2.1325
 1394WAT    EPW 5640   3.357   3.782   3.586 -0.2934 -0.1379 -0.7830
 1395WAT      O 5641   0.754   0.069   0.509 -0.3715 -0.2769 -0.3329
 1395WAT     H1 5642   0.830   0.090   0.454 -0.1027  0.2268  0.2088
 1395WAT     H2 5643   0.791   0.061   0.597 -0.7741 -1.1833 -0.2430
 1395WAT    EPW 5644   0.769   0.071   0.514 -0.3892 -0.3300 -0.2496
 1396WAT      O 5645   1.489   3.922   2.268  0.2036 -0.7581  0.0866
 1396WAT     H1 5646   1.461   3.997   2.321 -1.8368 -2.3330  1.4010
 1396WAT     H2 5647   1.575   3.899   2.303  0.9722  1.0465 -0.4917
 1396WAT    EPW 5648   1.497   3.929   2.280  0.0358 -0.7278  0.1837
 1397WAT      O 5649   2.922   0.954   3.512 -0.1974  0.0723 -0.1867
 1397WAT     H1 5650   3.005   0.928   3.472  0.4623  0.1643  1.0448
 1397WAT     H2 5651   2.891   1.027   3.460  1.2240  0.9540  0.1450
 1397WAT    EPW 5652   2.929   0.960   3.500  0.0771  0.2007  0.0194
 1398WAT      O 5653   3.634   3.468   0.456  0.4200  0.4939  0.1409
 1398WAT     H1 5654   3.689   3.442   0.382 -0.0828  0.1008 -0.0965
 1398WAT     H2 5655   3.557   3.508   0.415  0.6897  1.3890  0.4787
 1398WAT    EPW 5656   3.632   3.470   0.441  0.3893  0.5601  0.1542
 1399WAT      O 5657   2.358   4.232   0.429 -0.4217 -0.1439  0.2785
 1399WAT     H1 5658   2.383   4.141   0.445 -0.9157 -0.7212 -1.8741
 1399WAT     H2 5659   2.442   4.280   0.426 -0.1521 -0.5347  1.2337
 1399WAT    EPW 5660   2.373   4.227   0.431 -0.4513 -0.2716  0.1206
 1400WAT      O 5661   3.085   3.806   1.706 -0.6100 -0.3204  0.2163
 1400WAT     H1 5662   3.105   3.848   1.790 -0.8723  0.7127 -0.2137
 1400WAT     H2 5663   3.171   3.781   1.671 -0.2138  1.7515 -0.4352
 1400WAT    EPW 5664   3.099   3.809   1.712 -0.5924  0.0891  0.0737
 1401WAT      O 5665   1.103   3.371   2.227  0.5299  0.3821 -0.6134
 1401WAT     H1 5666   1.039   3.342   2.292  1.7090 -0.8955  0.0178
 1401WAT     H2 5667   1.060   3.355   2.142  0.4081 -1.5341 -0.2322
 1401WAT    EPW 5668   1.089   3.365   2.224  0.6693 -0.0392 -0.4799
 1402WAT      O 5669   2.191   2.823   3.276  0.3047  0.2746 -0.5956
 1402WAT     H1 5670   2.181   2.823   3.371 -0.1321  0.3499 -0.6374
 1402WAT     H2 5671   2.226   2.909   3.255  1.8348 -0.2662 -0.3703
 1402WAT    EPW 5672   2.194   2.834   3.286  0.4489  0.2132 -0.5714
 1403WAT      O 5673   1.322   2.657   1.958 -0.1084  0.7547 -0.6303
 1403WAT     H1 5674   1.333   2.722   1.888  1.5292  0.0318 -1.0945
 1403WAT     H2 5675   1.390   2.592   1.941  0.3761  0.5858  1.6758
 1403WAT    EPW 5676   1.333   2.657   1.946  0.1714  0.6371 -0.3874
 1404WAT      O 5677   2.586   0.069   1.860 -0.0380 -0.0704  0.2578
 1404WAT     H1 5678   2.533   0.113   1.926 -2.3215 -0.8048 -0.9808
 1404WAT     H2 5679   2.595   0.133   1.790 -0.6467 -0.4786 -0.1983
 1404WAT    EPW 5680   2.580   0.083   1.860 -0.4195 -0.2211  0.0343
 1405WAT      O 5681   1.974   3.882   0.756 -0.0714 -0.4158  0.3328
 1405WAT     H1 5682   1.985   3.961   0.808 -0.0825  0.0490 -0.3626
 1405WAT     H2 5683   1.881   3.878   0.736  0.2039  0.5013 -1.3174
 1405WAT    EPW 5684   1.963   3.892   0.760 -0.0366 -0.2336  0.0234
 1406WAT      O 5685   2.543   3.222   3.767  0.5817  0.3158  0.1592
 1406WAT     H1 5686   2.490   3.145   3.788 -0.6795  1.1016 -0.0441
 1406WAT     H2 5687   2.605   3.230   3.840 -1.2836  0.8746  1.7561
 1406WAT    EPW 5688   2.544   3.213   3.779  0.1693  0.4932  0.3430
 1407WAT      O 5689   3.001   1.046   0.692  0.0189  0.0467  0.1749
 1407WAT     H1 5690   3.087   1.031   0.654 -0.4499 -1.3474 -0.3882
 1407WAT     H2 5691   2.973   1.130   0.656  0.5015 -0.2272 -0.8686
 1407WAT    EPW 5692   3.009   1.055   0.682  0.0207 -0.1733 -0.0370
 1408WAT      O 5693   2.815   1.239   1.841 -0.0859 -0.0933 -0.3251
 1408WAT     H1 5694   2.725   1.248   1.873  0.6973  4.1139  1.3330
 1408WAT     H2 5695   2.868   1.235   1.920  1.3901  2.0748 -1.1238
 1408WAT    EPW 5696   2.810   1.239   1.856  0.2120  0.7476 -0.2117
 1409WAT      O 5697   3.291   2.948   2.119  0.4538  0.5624  0.1115
 1409WAT     H1 5698   3.293   2.885   2.192 -2.1612 -1.0150 -1.0249
 1409WAT     H2 5699   3.376   2.938   2.077 -0.5109 -4.0452 -1.3253
 1409WAT    EPW 5700   3.302   2.938   2.123 -0.0184 -0.2534 -0.2279
 1410WAT      O 5701   0.511   3.061   2.453 -0.2675  0.3198 -0.0118
 1410WAT     H1 5702   0.589   3.044   2.400  0.2275  0.8022  0.5450
 1410WAT     H2 5703   0.504   2.984   2.510 -0.0545  0.3798  0.0995
 1410WAT    EPW 5704   0.521   3.049   2.454 -0.1741  0.3914  0.0763
 1411WAT      O 5705   0.489   2.509   1.269 -0.2742  0.0632  0.5023
 1411WAT     H1 5706   0.494   2.418   1.240  0.3192  0.6296 -1.3130
 1411WAT     H2 5707   0.410   2.543   1.226 -2.3672 -0.3709  3.6963
 1411WAT    EPW 5708   0.479   2.502   1.260 -0.4720  0.0806  0.6842
 1412WAT      O 5709   0.924   0.851   3.467  0.9402 -0.7678  0.1340
 1412WAT     H1 5710   0.850   0.909   3.486  1.1425 -0.5703  0.3205
 1412WAT     H2 5711   0.999   0.910   3.457  0.8072 -0.8295 -1.5262
 1412WAT    EPW 5712   0.924   0.867   3.468  0.9494 -0.7499 -0.0604
 1413WAT      O 5713   1.136   3.814   2.708 -0.1399  0.3023  0.6425
 1413WAT     H1 5714   1.132   3.882   2.640 -2.5498  0.6547  1.0262
 1413WAT     H2 5715   1.135   3.732   2.659  0.3311  0.5469  0.2121
 1413WAT    EPW 5716   1.135   3.812   2.693 -0.3956  0.3811  0.6363
 1414WAT      O 5717   0.599   3.529   1.005 -0.1050  0.1211 -0.4401
 1414WAT     H1 5718   0.524   3.471   1.018 -1.6297  2.1108  0.1335
 1414WAT     H2 5719   0.603   3.542   0.910 -0.5761  0.1355 -0.4561
 1414WAT    EPW 5720   0.590   3.523   0.994 -0.3682  0.3854 -0.3666
 1415WAT      O 5721   1.117   0.559   2.931 -0.3466 -0.0540 -0.0921
 1415WAT     H1 5722   1.189   0.620   2.947  0.4909 -1.4325  1.9222
 1415WAT     H2 5723   1.048   0.587   2.992  0.3644 -1.5148  1.4750
 1415WAT    EPW 5724   1.117   0.571   2.941 -0.1423 -0.4285  0.3803
 1416WAT      O 5725   2.667   0.010   0.997  0.2181  0.1742 -0.0865
 1416WAT     H1 5726   2.636   0.052   0.917 -1.6619 -1.5837 -0.3703
 1416WAT     H2 5727   2.652  -0.084   0.983  0.8339 -0.2802  1.8978
 1416WAT    EPW 5728   2.661   0.003   0.985  0.0514 -0.1176  0.1378
 1417WAT      O 5729   1.254   0.452   0.423 -0.2899  0.6269  0.3975
 1417WAT     H1 5730   1.295   0.393   0.360 -0.6096 -1.1874  1.8006
 1417WAT     H2 5731   1.327   0.481   0.479 -0.3575  0.2530  0.6881
 1417WAT    EPW 5732   1.269   0.448   0.422 -0.3410  0.3383  0.6209
 1418WAT      O 5733   0.409   1.445   3.352 -0.7006  0.0095 -0.0700
 1418WAT     H1 5734   0.492   1.413   3.317 -1.4921 -0.5875 -1.4727
 1418WAT     H2 5735   0.433   1.519   3.407  0.8503 -0.7898  0.3819
 1418WAT    EPW 5736   0.423   1.450   3.355 -0.6004 -0.1747 -0.1954
 1419WAT      O 5737   2.094   0.025   2.676  0.6726 -0.3862  0.5361
 1419WAT     H1 5738   2.135  -0.050   2.631  0.8260  0.2633 -0.4276
 1419WAT     H2 5739   2.066  -0.011   2.760  1.7581 -1.2563  0.5556
 1419WAT    EPW 5740   2.096   0.010   2.681  0.8360 -0.4153  0.4116
 1420WAT      O 5741   0.824   3.329   1.017 -0.3355  0.5497  0.2079
 1420WAT     H1 5742   0.844   3.323   1.110 -2.7533 -1.4492  0.6978
 1420WAT     H2 5743   0.738   3.370   1.013 -0.0380  1.0999 -1.1927
 1420WAT    EPW 5744   0.815   3.333   1.029 -0.6152  0.3586  0.0878
 1421WAT      O 5745   2.981   1.422   2.405  0.4438 -0.1921 -0.5263
 1421WAT     H1 5746   2.894   1.462   2.395 -0.6157 -2.5526 -1.3955
 1421WAT     H2 5747   3.032   1.487   2.454 -1.5267  1.6363 -0.7762
 1421WAT    EPW 5748   2.976   1.436   2.410  0.0442 -0.2623 -0.6739
 1422WAT      O 5749   2.829   0.259   3.653 -0.5020 -0.0649  0.0002
 1422WAT     H1 5750   2.758   0.278   3.593 -1.7604 -1.3166  1.0059
 1422WAT     H2 5751   2.898   0.220   3.599 -2.1580 -2.4979 -0.5072
 1422WAT    EPW 5752   2.829   0.256   3.638 -0.8864 -0.5509  0.0659
 1423WAT      O 5753   1.738   3.753   0.643 -0.3241 -0.0938  0.0573
 1423WAT     H1 5754   1.643   3.746   0.628 -0.2067 -0.6160 -0.4617
 1423WAT     H2 5755   1.777   3.691   0.581  0.3251 -0.3333  0.6893
 1423WAT    EPW 5756   1.730   3.743   0.633 -0.2230 -0.1943  0.0722
 1424WAT      O 5757   2.524   1.112   3.695  0.0030  0.2496  0.1846
 1424WAT     H1 5758   2.509   1.169   3.620  0.0010 -0.2635 -0.2098
 1424WAT     H2 5759   2.528   1.172   3.770 -3.6246  0.5112  0.3499
 1424WAT    EPW 5760   2.523   1.128   3.695 -0.4757  0.2165  0.1544
 1425WAT      O 5761   0.694   2.466   0.421  0.1653 -0.6461 -0.0757
 1425WAT     H1 5762   0.775   2.463   0.472 -0.0537 -2.3003  0.2318
 1425WAT     H2 5763   0.695   2.386   0.369 -1.2460 -0.6894 -0.0911
 1425WAT    EPW 5764   0.705   2.455   0.421 -0.0497 -0.8700 -0.0371
 1426WAT      O 5765   1.995   0.508   0.183  0.4503 -0.2430  0.0199
 1426WAT     H1 5766   2.037   0.502   0.097 -1.3182 -0.5981 -0.8638
 1426WAT     H2 5767   1.959   0.597   0.185  1.2414  0.0704  0.7795
 1426WAT    EPW 5768   1.996   0.519   0.172  0.3214 -0.2485  0.0035
 1427WAT      O 5769   0.366   1.220   0.767  0.2866  0.2381  0.3888
 1427WAT     H1 5770   0.309   1.212   0.690  0.7328  1.0387 -0.0371
 1427WAT     H2 5771   0.453   1.199   0.734  0.1735 -1.6791  1.1898
 1427WAT    EPW 5772   0.370   1.216   0.753  0.3305  0.0908  0.4383
 1428WAT      O 5773   2.577   2.860   1.157 -0.1289 -0.1625 -0.4741
 1428WAT     H1 5774   2.597   2.803   1.083  0.9867 -0.4404  0.0189
 1428WAT     H2 5775   2.482   2.871   1.154 -0.2811 -1.4542 -1.0111
 1428WAT    EPW 5776   2.567   2.854   1.147 -0.0018 -0.3695 -0.4799
 1429WAT      O 5777   0.517   4.212   3.121 -0.1044 -0.1462 -0.5297
 1429WAT     H1 5778   0.543   4.219   3.029 -2.9662 -0.3945 -1.4610
 1429WAT     H2 5779   0.570   4.140   3.155 -0.0484 -1.0664 -2.4301
 1429WAT    EPW 5780   0.527   4.203   3.113 -0.4745 -0.3003 -0.9032
 1430WAT      O 5781   1.760   3.365   2.100 -0.0304  0.4851  0.0422
 1430WAT     H1 5782   1.729   3.295   2.042 -0.8959  1.2909 -0.4928
 1430WAT     H2 5783   1.727   3.340   2.187  2.0228 -1.1873  0.4093
 1430WAT    EPW 5784   1.751   3.352   2.104  0.1262  0.3708  0.0201
 1431WAT      O 5785   0.711   2.607   2.618  0.3305  0.7119 -0.2093
 1431WAT     H1 5786   0.741   2.553   2.692  0.3282  0.6982 -0.2182
 1431WAT     H2 5787   0.623   2.572   2.598 -0.4494  1.9189  0.9652
 1431WAT    EPW 5788   0.703   2.595   2.626  0.2273  0.8693 -0.0555
 1432WAT      O 5789   1.886   2.119   0.823  0.5515  0.0409 -0.0223
 1432WAT     H1 5790   1.931   2.198   0.854  1.8449 -0.9283  0.6654
 1432WAT     H2 5791   1.928   2.048   0.870 -1.0881 -1.0176 -0.0928
 1432WAT    EPW 5792   1.898   2.120   0.833  0.5059 -0.2265  0.0591
 1433WAT      O 5793   0.603   3.839   2.675 -0.1784  0.2058 -0.3321
 1433WAT     H1 5794   0.550   3.866   2.600  0.0284 -0.7777 -0.8474
 1433WAT     H2 5795   0.686   3.810   2.638  0.9629  2.2013  0.5114
 1433WAT    EPW 5796   0.607   3.839   2.660 -0.0006  0.3393 -0.2888
 1434WAT      O 5797   0.376   4.054   1.676  0.1443  0.3496  0.5192
 1434WAT     H1 5798   0.437   4.022   1.610 -0.9494 -0.3455 -0.1816
 1434WAT     H2 5799   0.427   4.055   1.758  0.7600 -1.3072  0.1811
 1434WAT    EPW 5800   0.391   4.050   1.678  0.0812  0.0394  0.3822
 1435WAT      O 5801   1.970   1.575   1.500 -0.1914  0.6770  0.3218
 1435WAT     H1 5802   1.985   1.661   1.459  0.9577  0.2624 -0.1649
 1435WAT     H2 5803   2.035   1.570   1.570  0.4343 -0.2000 -0.3030
 1435WAT    EPW 5804   1.980   1.586   1.504  0.0427  0.5067  0.1752
 1436WAT      O 5805   3.543   1.368   1.888 -0.0423  0.1491  0.2438
 1436WAT     H1 5806   3.496   1.284   1.882  0.6654 -0.1574 -1.4921
 1436WAT     H2 5807   3.484   1.425   1.938 -0.7134 -1.2489  1.0945
 1436WAT    EPW 5808   3.529   1.364   1.894 -0.0375 -0.0757  0.1270
 1437WAT      O 5809   2.156   1.522   3.410  0.2226 -0.0405  0.0978
 1437WAT     H1 5810   2.227   1.540   3.472 -0.7617  1.1262  0.9425
 1437WAT     H2 5811   2.172   1.582   3.337  0.2187  0.0828  0.1974
 1437WAT    EPW 5812   2.168   1.532   3.409  0.0923  0.1296  0.2223
 1438WAT      O 5813   1.989   0.636   2.745 -0.4539  0.0418  0.4263
 1438WAT     H1 5814   1.995   0.545   2.715  0.1086 -0.3433  1.6227
 1438WAT     H2 5815   1.942   0.681   2.676 -1.4831 -1.3404  0.1781
 1438WAT    EPW 5816   1.984   0.630   2.732 -0.5154 -0.1913  0.5514
 1439WAT      O 5817   0.553   0.617   3.535  0.1640 -0.4141  0.1892
 1439WAT     H1 5818   0.589   0.539   3.493  0.8609 -0.5654  1.0636
 1439WAT     H2 5819   0.482   0.583   3.590  0.2501 -0.3896  0.3142
 1439WAT    EPW 5820   0.548   0.602   3.536  0.2673 -0.4308  0.3210
 1440WAT      O 5821   0.933   4.140   3.902 -0.0785  0.5191  0.3031
 1440WAT     H1 5822   0.954   4.117   3.993 -0.2610 -1.5197 -0.1172
 1440WAT     H2 5823   1.018   4.157   3.862  0.0965  0.3882  0.6117
 1440WAT    EPW 5824   0.947   4.139   3.909 -0.0795  0.2330  0.2884
 1441WAT      O 5825   2.828   4.188   1.949 -0.0866 -0.0130 -0.3312
 1441WAT     H1 5826   2.865   4.162   1.865 -0.4892 -0.0106 -0.5072
 1441WAT     H2 5827   2.734   4.193   1.934 -0.1247  0.3732  0.0136
 1441WAT    EPW 5828   2.821   4.185   1.936 -0.1447  0.0382 -0.3089
 1442WAT      O 5829   0.674   1.514   0.052 -0.4421 -0.2630  0.3830
 1442WAT     H1 5830   0.653   1.599   0.012  1.0674  0.3685  0.8415
 1442WAT     H2 5831   0.589   1.473   0.067 -1.1624 -0.3313 -2.9316
 1442WAT    EPW 5832   0.660   1.520   0.048 -0.3380 -0.1887  0.0063
 1443WAT      O 5833   0.107   3.216   2.683  0.2896  0.1942  0.1894
 1443WAT     H1 5834   0.012   3.219   2.692  0.2425 -0.6841  0.0774
 1443WAT     H2 5835   0.124   3.257   2.598 -0.1100 -0.9405 -0.4520
 1443WAT    EPW 5836   0.097   3.222   2.673  0.2307 -0.0713  0.0900
 1444WAT      O 5837   2.099   0.736   0.523  0.2941 -0.0538 -0.0656
 1444WAT     H1 5838   2.189   0.768   0.530  0.1869  0.0937  0.7530
 1444WAT     H2 5839   2.107   0.650   0.481  0.9047 -0.4429  0.8252
 1444WAT    EPW 5840   2.112   0.729   0.518  0.3605 -0.0857  0.1598
 1445WAT      O 5841   2.289   0.952   3.774 -0.4840  0.0391  0.0198
 1445WAT     H1 5842   2.355   0.904   3.824  0.1270  0.5554 -0.2704
 1445WAT     H2 5843   2.340   1.010   3.718 -1.1942  0.4279 -0.2307
 1445WAT    EPW 5844   2.305   0.953   3.773 -0.4971  0.1585 -0.0515
 1446WAT      O 5845   0.503   0.262   1.116  0.0424 -0.4344  0.4421
 1446WAT     H1 5846   0.523   0.229   1.204  1.3581 -0.7053  0.0605
 1446WAT     H2 5847   0.573   0.324   1.097 -0.6948  0.2494 -0.1033
 1446WAT    EPW 5848   0.515   0.266   1.125  0.1187 -0.3799  0.3198
 1447WAT      O 5849   0.634   0.547   0.141 -0.4208 -0.3022 -0.2595
 1447WAT     H1 5850   0.638   0.522   0.049 -0.0194 -0.1786 -0.2782
 1447WAT     H2 5851   0.540   0.547   0.162 -0.7700  2.4104 -1.4263
 1447WAT    EPW 5852   0.622   0.544   0.132 -0.4139  0.0719 -0.4158
 1448WAT      O 5853   2.816   2.814   0.241 -0.3176  0.4514  0.0525
 1448WAT     H1 5854   2.758   2.850   0.308 -1.0048  1.8815 -1.2527
 1448WAT     H2 5855   2.854   2.736   0.282 -1.5792  0.6306  1.6758
 1448WAT    EPW 5856   2.814   2.808   0.255 -0.5746  0.6637  0.0944
 1449WAT      O 5857   3.025   2.884   1.266  0.3281 -0.4957 -0.2658
 1449WAT     H1 5858   2.934   2.913   1.259 -0.0163 -1.2257  1.0197
 1449WAT     H2 5859   3.063   2.939   1.335  1.2489  0.6729 -1.6349
 1449WAT    EPW 5860   3.018   2.895   1.274  0.4041 -0.4378 -0.2768
 1450WAT      O 5861   1.092   3.937   3.067 -0.2463  0.4283  0.0540
 1450WAT     H1 5862   1.170   3.992   3.059 -0.3754  0.5984 -0.0523
 1450WAT     H2 5863   1.064   3.949   3.158 -0.7966  1.2636 -0.2078
 1450WAT    EPW 5864   1.098   3.946   3.078 -0.3359  0.5609  0.0055
 1451WAT      O 5865   2.506   0.373   2.202  0.1073 -0.0079  0.0860
 1451WAT     H1 5866   2.529   0.416   2.284 -2.0932  1.5613 -0.0175
 1451WAT     H2 5867   2.571   0.404   2.139  0.8899  0.0043  0.8821
 1451WAT    EPW 5868   2.517   0.383   2.205 -0.0797  0.2007  0.1773
 1452WAT      O 5869   1.938   3.728   3.311 -0.7080  0.4523 -0.5633
 1452WAT     H1 5870   1.935   3.632   3.317 -0.7255  0.5108  0.5216
 1452WAT     H2 5871   1.875   3.750   3.243 -0.9084 -0.2918 -0.6241
 1452WAT    EPW 5872   1.930   3.718   3.303 -0.7367  0.3619 -0.4282
 1453WAT      O 5873   3.195   0.981   1.679 -0.5464  0.0139 -0.9047
 1453WAT     H1 5874   3.251   0.920   1.631 -0.8251 -1.3869  0.4642
 1453WAT     H2 5875   3.244   1.001   1.759 -0.7114  1.1497 -1.0710
 1453WAT    EPW 5876   3.209   0.975   1.683 -0.6049 -0.0211 -0.7461
 1454WAT      O 5877   2.956   0.765   2.530  0.4702  0.1094  0.4645
 1454WAT     H1 5878   2.918   0.720   2.455 -0.3228  0.8276  0.4241
 1454WAT     H2 5879   2.954   0.699   2.600 -0.1267 -0.1045  0.2492
 1454WAT    EPW 5880   2.951   0.750   2.530  0.2869  0.1759  0.4308
 1455WAT      O 5881   1.756   0.026   1.774 -0.2984 -0.7200 -0.2695
 1455WAT     H1 5882   1.730  -0.064   1.795 -1.9984 -0.3460 -0.6318
 1455WAT     H2 5883   1.843   0.017   1.734  0.2754 -2.0182  1.1673
 1455WAT    EPW 5884   1.764   0.013   1.771 -0.4470 -0.8419 -0.1278
 1456WAT      O 5885   2.967   3.268   1.301 -0.7352  0.0775  0.2052
 1456WAT     H1 5886   2.962   3.188   1.353 -1.0107 -1.4121 -1.9666
 1456WAT     H2 5887   2.901   3.326   1.339 -1.1566 -1.0716  1.2718
 1456WAT    EPW 5888   2.958   3.265   1.313 -0.8271 -0.2705  0.0594
 1457WAT      O 5889   2.739   3.201   2.033 -0.1933 -0.0427  0.1154
 1457WAT     H1 5890   2.818   3.157   2.067 -0.7419  0.7634  2.6657
 1457WAT     H2 5891   2.668   3.163   2.084 -1.2513  0.4914 -0.9351
 1457WAT    EPW 5892   2.740   3.190   2.044 -0.4052  0.1341  0.3132
 1458WAT      O 5893   0.660   3.874   1.231 -0.0532 -0.4042  0.2628
 1458WAT     H1 5894   0.610   3.796   1.208  0.9900 -0.9413 -0.1966
 1458WAT     H2 5895   0.750   3.853   1.209  0.5072  0.2892  1.7653
 1458WAT    EPW 5896   0.665   3.861   1.225  0.1583 -0.3836  0.4004
 1459WAT      O 5897   2.962   1.217   1.247 -0.6495 -0.6927  0.4170
 1459WAT     H1 5898   3.002   1.204   1.333  0.9492 -0.0448 -0.2012
 1459WAT     H2 5899   3.033   1.204   1.185 -1.4405  0.2933 -0.7506
 1459WAT    EPW 5900   2.977   1.213   1.250 -0.5429 -0.4772  0.1814
 1460WAT      O 5901   2.779   1.123   3.313 -0.2538 -0.2093 -0.0075
 1460WAT     H1 5902   2.685   1.122   3.299 -0.1225 -1.2038 -0.9652
 1460WAT     H2 5903   2.817   1.127   3.225  0.5969 -0.0982  0.3495
 1460WAT    EPW 5904   2.772   1.123   3.300 -0.1243 -0.3258 -0.0867
 1461WAT      O 5905   0.550   0.327   3.510 -0.0793 -0.5454  0.0186
 1461WAT     H1 5906   0.530   0.259   3.573 -0.0328 -0.7168 -0.1503
 1461WAT     H2 5907   0.528   0.289   3.425  1.3885 -0.9289 -0.2266
 1461WAT    EPW 5908   0.545   0.313   3.507  0.1204 -0.6186 -0.0361
 1462WAT      O 5909   0.334   1.563   0.275 -0.1861 -0.3802 -0.1886
 1462WAT     H1 5910   0.302   1.543   0.363 -1.4028  2.1764  0.0141
 1462WAT     H2 5911   0.426   1.587   0.288 -0.1989 -0.5724  0.2768
 1462WAT    EPW 5912   0.342   1.563   0.289 -0.3483 -0.0684 -0.1004
 1463WAT      O 5913   0.450   1.730   2.012 -0.5862 -0.6455 -0.5507
 1463WAT     H1 5914   0.507   1.653   2.020  0.0688 -0.2449 -1.1731
 1463WAT     H2 5915   0.430   1.735   1.918 -2.5386 -1.3849 -0.2177
 1463WAT    EPW 5916   0.455   1.721   2.001 -0.7573 -0.6902 -0.5888
 1464WAT      O 5917   3.455   2.016   3.388  0.3113 -0.0871 -0.1989
 1464WAT     H1 5918   3.369   1.990   3.354  0.8520 -0.5146 -1.2708
 1464WAT     H2 5919   3.505   2.040   3.310  1.6911 -1.4223  0.2419
 1464WAT    EPW 5920   3.450   2.015   3.373  0.5646 -0.3196 -0.2821
 1465WAT      O 5921   2.103   1.066   3.102  0.1325  0.1412  0.1991
 1465WAT     H1 5922   2.150   1.069   3.019  2.4765  0.3929  1.4508
 1465WAT     H2 5923   2.132   1.143   3.150 -0.0102 -0.7646  1.8241
 1465WAT    EPW 5924   2.113   1.076   3.097  0.4229  0.0550  0.5785
 1466WAT      O 5925   2.843   2.383   2.001  0.5292 -0.0329 -0.2475
 1466WAT     H1 5926   2.929   2.379   1.960  1.0591 -0.4528  0.8707
 1466WAT     H2 5927   2.815   2.292   2.008  0.1074  0.0840 -0.3595
 1466WAT    EPW 5928   2.851   2.371   1.997  0.5435 -0.0729 -0.1147
 1467WAT      O 5929   1.677   1.142   3.255 -0.1424 -0.0709  0.2953
 1467WAT     H1 5930   1.648   1.195   3.329 -0.7442  0.0130 -0.0015
 1467WAT     H2 5931   1.602   1.087   3.234  0.3546 -0.7902  0.3688
 1467WAT    EPW 5932   1.663   1.142   3.262 -0.1562 -0.1547  0.2658
 1468WAT      O 5933   3.496   3.541   2.353  0.1786  0.0637  0.2593
 1468WAT     H1 5934   3.527   3.559   2.265  0.4594  0.0233  0.3498
 1468WAT     H2 5935   3.574   3.545   2.408 -0.2870  2.5349  0.9015
 1468WAT    EPW 5936   3.510   3.544   2.349  0.1542  0.3843  0.3559
 1469WAT      O 5937   2.107   2.943   1.589  0.0807 -0.3026 -0.0083
 1469WAT     H1 5938   2.062   3.014   1.634  0.6074  0.5499 -0.8022
 1469WAT     H2 5939   2.081   2.864   1.638  1.2614  0.6365  2.2695
 1469WAT    EPW 5940   2.097   2.942   1.601  0.3059 -0.0663  0.1874
 1470WAT      O 5941   1.029   1.889   1.748 -0.2542 -0.2310 -0.0057
 1470WAT     H1 5942   0.998   1.920   1.833 -0.5288  1.0534 -0.5476
 1470WAT     H2 5943   1.097   1.825   1.769 -0.4297 -0.0571  1.1685
 1470WAT    EPW 5944   1.034   1.884   1.762 -0.3136 -0.0387  0.0777
 1471WAT      O 5945   0.510   3.696   1.749  0.6120  0.1016  0.5671
 1471WAT     H1 5946   0.560   3.711   1.830  1.7235  1.7771 -0.3501
 1471WAT     H2 5947   0.471   3.782   1.730 -1.5541 -0.8330  0.5070
 1471WAT    EPW 5948   0.512   3.709   1.757  0.4729  0.1994  0.4382
 1472WAT      O 5949   0.272   2.461   3.153  0.4106  0.6964 -0.0197
 1472WAT     H1 5950   0.364   2.484   3.169  0.5674 -0.7543  1.3808
 1472WAT     H2 5951   0.272   2.419   3.067  1.2032 -0.0407  0.3336
 1472WAT    EPW 5952   0.284   2.458   3.144  0.5358  0.4078  0.2116
 1473WAT      O 5953   2.040   0.406   1.660 -0.2336 -0.0806  0.1175
 1473WAT     H1 5954   2.129   0.419   1.628 -0.2154 -1.7330 -0.6256
 1473WAT     H2 5955   2.047   0.332   1.720 -1.2462 -0.9177 -0.7429
 1473WAT    EPW 5956   2.052   0.398   1.664 -0.3647 -0.4089 -0.0940
 1474WAT      O 5957   0.136   0.702   2.581 -0.5772  0.3682  0.2308
 1474WAT     H1 5958   0.145   0.702   2.677 -0.9909  1.3584  0.2867
 1474WAT     H2 5959   0.061   0.646   2.564 -1.5437  1.4895  0.6327
 1474WAT    EPW 5960   0.128   0.695   2.592 -0.7592  0.6467  0.2912
 1475WAT      O 5961   0.635   1.506   2.038 -0.3624  0.5090  0.3235
 1475WAT     H1 5962   0.657   1.535   2.127 -0.6462 -0.6103  0.7783
 1475WAT     H2 5963   0.706   1.540   1.983 -0.1049  1.0870  0.9915
 1475WAT    EPW 5964   0.647   1.514   2.043 -0.3659  0.4376  0.4716
 1476WAT      O 5965   0.328   1.466   0.897 -0.3194 -0.0872  0.2426
 1476WAT     H1 5966   0.355   1.385   0.855 -0.4324 -0.8709  1.6271
 1476WAT     H2 5967   0.386   1.533   0.860  0.2587 -0.9187 -0.3903
 1476WAT    EPW 5968   0.339   1.464   0.887 -0.2580 -0.3002  0.3417
 1477WAT      O 5969   0.919   2.932   3.404  0.3732  0.3511 -0.1883
 1477WAT     H1 5970   0.944   3.024   3.404  1.1884  0.1552 -1.0442
 1477WAT     H2 5971   0.839   2.928   3.456  1.1438  1.3057  1.1394
 1477WAT    EPW 5972   0.912   2.944   3.411  0.5824  0.4512 -0.1261
 1478WAT      O 5973   2.170   3.577   3.415  0.4428 -0.6815 -0.2763
 1478WAT     H1 5974   2.124   3.659   3.398 -0.4609 -1.2126 -0.4207
 1478WAT     H2 5975   2.263   3.602   3.416  0.1820  0.3406 -0.2992
 1478WAT    EPW 5976   2.176   3.591   3.413  0.2892 -0.6167 -0.2983
 1479WAT      O 5977   1.402   3.270   0.232 -0.1857  0.2102  0.5125
 1479WAT     H1 5978   1.454   3.190   0.237  0.0738  0.3709  0.4122
 1479WAT     H2 5979   1.362   3.267   0.145 -0.4965 -0.0058  0.6616
 1479WAT    EPW 5980   1.403   3.259   0.221 -0.1925  0.2029  0.5189
 1480WAT      O 5981   1.718   1.993   3.346 -1.2908  0.2545 -0.0323
 1480WAT     H1 5982   1.775   2.068   3.363 -1.0204  0.1311 -0.3960
 1480WAT     H2 5983   1.645   2.005   3.407 -0.5802  0.0805  0.8688
 1480WAT    EPW 5984   1.716   2.005   3.356 -1.1614  0.2152  0.0386
 1481WAT      O 5985   2.894   1.682   1.051  0.1334 -0.7264  0.1823
 1481WAT     H1 5986   2.844   1.632   1.115 -0.7977 -1.2131 -0.8828
 1481WAT     H2 5987   2.846   1.764   1.043 -0.1503 -0.9397 -0.3744
 1481WAT    EPW 5988   2.881   1.686   1.058 -0.0268 -0.8187 -0.0316
 1482WAT      O 5989   0.116   0.496   1.655  0.1781  0.6067 -0.1143
 1482WAT     H1 5990   0.076   0.538   1.579 -1.1750 -1.4796 -0.6671
 1482WAT     H2 5991   0.189   0.446   1.620 -0.9739 -1.0665 -0.2737
 1482WAT    EPW 5992   0.120   0.495   1.641 -0.1523  0.1108 -0.2082
 1483WAT      O 5993   2.364   3.811   2.058 -0.2879 -0.3489  0.0733
 1483WAT     H1 5994   2.281   3.769   2.035 -0.1334 -0.5936 -0.0387
 1483WAT     H2 5995   2.430   3.743   2.047 -0.1594 -0.3659  0.8726
 1483WAT    EPW 5996   2.362   3.797   2.054 -0.2506 -0.3834  0.1639
 1484WAT      O 5997   0.581   4.152   1.131  0.5326 -0.0543 -0.1471
 1484WAT     H1 5998   0.595   4.063   1.166  2.0322  0.0206 -0.4764
 1484WAT     H2 5999   0.489   4.154   1.106  0.1469 -1.0736  1.1093
 1484WAT    EPW 6000   0.571   4.140   1.132  0.6796 -0.1789 -0.0248
 1485WAT      O 6001   1.223   4.237   0.617 -0.2411 -0.0399  0.2409
 1485WAT     H1 6002   1.217   4.332   0.605  0.0587 -0.2088 -1.5286
 1485WAT     H2 6003   1.138   4.204   0.589 -0.4273 -0.2800  1.0801
 1485WAT    EPW 6004   1.211   4.245   0.612 -0.2261 -0.0938  0.1182
 1486WAT      O 6005   1.146   4.244   3.712  0.0240 -0.6402  0.0447
 1486WAT     H1 6006   1.126   4.200   3.630 -0.3745 -0.1353 -0.1285
 1486WAT     H2 6007   1.084   4.316   3.717 -0.3882 -1.0473  1.1042
 1486WAT    EPW 6008   1.135   4.248   3.702 -0.0829 -0.6273  0.1616
 1487WAT      O 6009   1.690   2.175   2.355 -0.6482  0.2673 -0.2376
 1487WAT     H1 6010   1.614   2.214   2.398 -0.9243  0.8742 -1.2501
 1487WAT     H2 6011   1.732   2.248   2.310 -0.1411 -0.2839 -0.6762
 1487WAT    EPW 6012   1.686   2.190   2.355 -0.6177  0.2746 -0.4290
 1488WAT      O 6013   2.475   1.959   2.269 -0.4560  0.7168 -0.1346
 1488WAT     H1 6014   2.499   2.051   2.255  0.4661  0.4447 -0.4223
 1488WAT     H2 6015   2.469   1.922   2.181 -2.4358  0.8691 -0.1021
 1488WAT    EPW 6016   2.478   1.966   2.255 -0.5955  0.7010 -0.1682
 1489WAT      O 6017   0.936   4.078   0.171 -0.1063  0.1899  0.0251
 1489WAT     H1 6018   0.894   4.029   0.242 -1.2823  0.9288 -0.1306
 1489WAT     H2 6019   1.021   4.037   0.161 -1.4794 -2.6533 -0.9765
 1489WAT    EPW 6020   0.941   4.066   0.179 -0.4425 -0.0877 -0.1276
 1490WAT      O 6021   2.035   1.506   2.220  0.0772  0.5760 -0.3736
 1490WAT     H1 6022   1.995   1.470   2.140 -0.2580  1.2374 -0.5138
 1490WAT     H2 6023   1.985   1.586   2.238  0.4916  0.7155  0.2032
 1490WAT    EPW 6024   2.023   1.512   2.212  0.0877  0.6817 -0.3160
 1491WAT      O 6025   2.033   0.719   1.737  0.0843 -0.4406 -0.0028
 1491WAT     H1 6026   2.084   0.736   1.657 -1.5261 -1.3104 -1.2934
 1491WAT     H2 6027   1.988   0.802   1.754  0.2867 -0.3070 -0.1059
 1491WAT    EPW 6028   2.034   0.732   1.728 -0.1014 -0.5377 -0.1866
 1492WAT      O 6029   2.048   4.079   2.071 -0.1218 -0.1350  0.5289
 1492WAT     H1 6030   2.007   4.163   2.049 -0.4674 -0.7360 -1.2625
 1492WAT     H2 6031   2.076   4.043   1.987  3.0322 -0.3294  1.5192
 1492WAT    EPW 6032   2.047   4.086   2.057  0.2486 -0.2399  0.4233
 1493WAT      O 6033   1.034   2.688   3.964  0.0930 -0.1263 -0.1689
 1493WAT     H1 6034   1.078   2.606   3.942  1.1819  0.5137 -0.4239
 1493WAT     H2 6035   1.103   2.754   3.961 -0.5509  0.6430  1.0931
 1493WAT    EPW 6036   1.049   2.685   3.960  0.1517  0.0596 -0.0361
 1494WAT      O 6037   1.193   2.829   0.977 -0.2067  0.2228  0.9797
 1494WAT     H1 6038   1.213   2.747   0.932  0.8976 -0.0571  1.9187
 1494WAT     H2 6039   1.204   2.896   0.910 -1.4620 -0.4028  0.1055
 1494WAT    EPW 6040   1.197   2.827   0.962 -0.2266  0.1034  0.9883
 1495WAT      O 6041   1.939   3.776   1.349  0.0027  0.1006  0.1464
 1495WAT     H1 6042   2.019   3.778   1.402 -1.3451  0.0264  2.2962
 1495WAT     H2 6043   1.933   3.685   1.319  0.8024  0.1570 -0.2337
 1495WAT    EPW 6044   1.949   3.764   1.352 -0.0696  0.0983  0.3798
 1496WAT      O 6045   2.291   1.929   1.352 -0.5093  0.0096 -0.3873
 1496WAT     H1 6046   2.202   1.897   1.336 -0.7012  0.0827  0.4873
 1496WAT     H2 6047   2.328   1.869   1.416  0.6563 -0.9560 -1.9022
 1496WAT    EPW 6048   2.284   1.917   1.358 -0.3809 -0.1081 -0.4718
 1497WAT      O 6049   3.348   3.331   1.983  0.8451  0.2225  0.3069
 1497WAT     H1 6050   3.414   3.380   1.935  0.5451  0.6952  0.3709
 1497WAT     H2 6051   3.320   3.390   2.053 -1.2821  0.9532 -1.0496
 1497WAT    EPW 6052   3.353   3.345   1.986  0.5250  0.3812  0.1364
 1498WAT      O 6053   1.746   3.023   2.436 -0.0439 -0.0294 -0.6096
 1498WAT     H1 6054   1.822   2.969   2.454  0.7677  0.6610 -1.8369
 1498WAT     H2 6055   1.754   3.097   2.496 -0.6274 -0.7452  0.3776
 1498WAT    EPW 6056   1.757   3.026   2.446 -0.0138 -0.0328 -0.6413
 1499WAT      O 6057   2.618   0.905   3.431  0.1552  0.1346  0.3183
 1499WAT     H1 6058   2.579   0.825   3.468 -0.8912  0.8301  0.7856
 1499WAT     H2 6059   2.671   0.941   3.502 -0.5486  0.6074  0.6228
 1499WAT    EPW 6060   2.620   0.899   3.445 -0.0757  0.2887  0.4201
 1500WAT      O 6061   1.338   3.962   1.470 -0.1272  0.6803  0.0144
 1500WAT     H1 6062   1.248   3.954   1.499  0.7018 -0.8835  2.3779
 1500WAT     H2 6063   1.338   3.924   1.382 -1.6469  0.1563  0.2142
 1500WAT    EPW 6064   1.326   3.956   1.462 -0.2183  0.4049  0.3525
 1501WAT      O 6065   1.212   2.161   1.913 -0.1811 -0.2137 -0.0449
 1501WAT     H1 6066   1.307   2.169   1.913 -0.0937 -0.8855 -1.6316
 1501WAT     H2 6067   1.188   2.158   1.821 -1.6988 -0.6102  0.3329
 1501WAT    EPW 6068   1.221   2.162   1.901 -0.3697 -0.3546 -0.2043
 1502WAT      O 6069   2.711   3.966   3.147  0.9598 -0.0549  0.0620
 1502WAT     H1 6070   2.729   4.043   3.094  1.4446 -1.1064 -1.3712
 1502WAT     H2 6071   2.650   3.997   3.214 -0.7963  1.0790 -1.9014
 1502WAT    EPW 6072   2.705   3.980   3.149  0.7921 -0.0440 -0.3860
 1503WAT      O 6073   3.206   1.885   2.121 -0.1649  0.1075  0.1301
 1503WAT     H1 6074   3.295   1.901   2.152 -0.9295  0.0420  2.6224
 1503WAT     H2 6075   3.200   1.935   2.040  2.3328 -0.4689 -0.5024
 1503WAT    EPW 6076   3.217   1.894   2.115  0.0637  0.0229  0.3754
 1504WAT      O 6077   2.953   1.024   2.643  0.4223 -0.3595 -0.0378
 1504WAT     H1 6078   2.913   0.945   2.606  1.4080 -0.4776 -0.9107
 1504WAT     H2 6079   3.042   1.023   2.609  0.4124  1.1947 -0.1678
 1504WAT    EPW 6080   2.959   1.013   2.633  0.5510 -0.1701 -0.1701
 1505WAT      O 6081   1.436   1.346   3.145  1.0005  0.5874 -0.1437
 1505WAT     H1 6082   1.508   1.406   3.164  2.1874 -0.4487 -1.2117
 1505WAT     H2 6083   1.424   1.353   3.050  0.0093  0.3912 -0.0424
 1505WAT    EPW 6084   1.444   1.355   3.135  1.0263  0.4248 -0.2712
 1506WAT      O 6085   2.762   3.329   0.865  0.3118 -0.2083 -0.4034
 1506WAT     H1 6086   2.844   3.283   0.885  0.4728 -0.6919 -2.0274
 1506WAT     H2 6087   2.790   3.409   0.820 -0.1038 -0.6823 -1.5341
 1506WAT    EPW 6088   2.777   3.333   0.862  0.2782 -0.3346 -0.7667
 1507WAT      O 6089   3.612   2.490   1.109 -0.7212 -0.4354  0.2976
 1507WAT     H1 6090   3.527   2.448   1.099 -0.6590 -0.0025 -3.1717
 1507WAT     H2 6091   3.676   2.421   1.093 -0.5610  0.0356 -1.3172
 1507WAT    EPW 6092   3.609   2.476   1.106 -0.6919 -0.3162 -0.3729
 1508WAT      O 6093   2.720   0.401   1.134  0.4984 -0.2465 -0.1974
 1508WAT     H1 6094   2.792   0.465   1.131  0.0038  0.2935 -0.7200
 1508WAT     H2 6095   2.757   0.327   1.181  1.1164  0.3856  0.3410
 1508WAT    EPW 6096   2.735   0.400   1.139  0.5147 -0.0919 -0.1953
 1509WAT      O 6097   0.812   2.338   2.481  0.6169 -0.0070  0.1912
 1509WAT     H1 6098   0.782   2.328   2.391  0.0753 -0.6646  0.4348
 1509WAT     H2 6099   0.858   2.422   2.482 -0.5623  0.6760 -0.3775
 1509WAT    EPW 6100   0.814   2.348   2.470  0.3899 -0.0036  0.1483
 1510WAT      O 6101   1.460   1.867   2.718 -0.0016 -0.4069 -0.5659
 1510WAT     H1 6102   1.451   1.880   2.624  0.7212  0.5824 -0.5162
 1510WAT     H2 6103   1.456   1.955   2.755 -1.3925 -0.8583  0.4509
 1510WAT    EPW 6104   1.458   1.880   2.710 -0.0897 -0.3359 -0.4252
 1511WAT      O 6105   1.213   1.964   3.517 -0.3027  0.1505 -0.0363
 1511WAT     H1 6106   1.299   2.001   3.530  0.3266 -0.8918 -0.9767
 1511WAT     H2 6107   1.220   1.914   3.435 -1.3621 -1.1593  0.6094
 1511WAT    EPW 6108   1.225   1.962   3.508 -0.3595 -0.1597 -0.0752
 1512WAT      O 6109   0.104   1.248   3.652 -0.3064 -0.3139 -0.4303
 1512WAT     H1 6110   0.061   1.319   3.698 -1.2238 -0.0285 -1.6676
 1512WAT     H2 6111   0.148   1.197   3.720 -2.0776 -0.2542  0.8142
 1512WAT    EPW 6112   0.104   1.250   3.667 -0.6610 -0.2684 -0.4293
 1513WAT      O 6113   1.695   0.162   1.994  0.2892 -0.3005 -0.4407
 1513WAT     H1 6114   1.699   0.077   2.039  1.9251 -0.2236 -0.4038
 1513WAT     H2 6115   1.731   0.144   1.907  3.1421  0.8330  0.3969
 1513WAT    EPW 6116   1.700   0.148   1.988  0.8812 -0.1409 -0.3254
 1514WAT      O 6117   2.867   3.026   1.465 -0.0527 -0.6147  0.1677
 1514WAT     H1 6118   2.880   2.932   1.452 -0.0408 -0.3957 -1.7515
 1514WAT     H2 6119   2.791   3.048   1.410  0.4050  0.6204 -0.0107
 1514WAT    EPW 6120   2.859   3.017   1.456  0.0092 -0.4229 -0.1090
 1515WAT      O 6121   2.936   3.641   0.982 -0.4086 -0.4212 -0.1460
 1515WAT     H1 6122   3.008   3.676   0.929 -1.2984  1.2516 -0.3139
 1515WAT     H2 6123   2.979   3.600   1.057  0.7248  1.5687  0.3597
 1515WAT    EPW 6124   2.951   3.640   0.985 -0.3765  0.0619 -0.1015
 1516WAT      O 6125   0.140   1.951   3.042 -0.6185 -0.2598 -0.1781
 1516WAT     H1 6126   0.128   1.856   3.048 -1.0964 -0.1884  0.0691
 1516WAT     H2 6127   0.233   1.965   3.062 -0.8695 -0.5521  1.3238
 1516WAT    EPW 6128   0.151   1.940   3.046 -0.7146 -0.2889  0.0526
 1517WAT      O 6129   2.427   1.164   0.641 -0.6262  0.0383  0.0884
 1517WAT     H1 6130   2.413   1.204   0.555  1.6775  2.1205  0.5584
 1517WAT     H2 6131   2.392   1.076   0.633 -1.4426  0.5268 -2.6345
 1517WAT    EPW 6132   2.420   1.158   0.629 -0.4300  0.3774 -0.2088
 1518WAT      O 6133   1.504   0.289   2.379 -0.1907  0.1999  0.6305
 1518WAT     H1 6134   1.502   0.289   2.283  1.3689  0.6008  0.5810
 1518WAT     H2 6135   1.446   0.360   2.404 -0.3741  0.2878 -0.0216
 1518WAT    EPW 6136   1.496   0.298   2.370 -0.0092  0.2643  0.5380
 1519WAT      O 6137   2.383   0.194   2.019  0.1268 -0.3631  0.3472
 1519WAT     H1 6138   2.426   0.226   2.098  0.3397 -0.9155  0.4611
 1519WAT     H2 6139   2.315   0.134   2.051  0.7874 -1.2701  0.0958
 1519WAT    EPW 6140   2.380   0.190   2.034  0.2420 -0.5556  0.3291
 1520WAT      O 6141   3.684   1.781   0.854  0.2544  0.1382  0.3215
 1520WAT     H1 6142   3.591   1.771   0.873  0.0375  0.0421 -0.7375
 1520WAT     H2 6143   3.727   1.776   0.939 -0.6392 -0.6339  0.7331
 1520WAT    EPW 6144   3.678   1.779   0.868  0.1079  0.0237  0.2361
 1521WAT      O 6145   0.111   1.400   3.425 -0.0796 -0.1244  0.0924
 1521WAT     H1 6146   0.116   1.349   3.506 -0.0173  0.7103  0.6320
 1521WAT     H2 6147   0.203   1.411   3.398 -0.1470 -1.2008 -0.6198
 1521WAT    EPW 6148   0.124   1.395   3.432 -0.0803 -0.1563  0.0697
 1522WAT      O 6149   3.377   0.158   0.607  0.3625  0.1509  0.1152
 1522WAT     H1 6150   3.387   0.086   0.669 -1.3884 -0.9511 -0.8001
 1522WAT     H2 6151   3.409   0.123   0.524 -2.4644 -0.4180 -0.8343
 1522WAT    EPW 6152   3.382   0.144   0.605 -0.2413 -0.0695 -0.1308
 1523WAT      O 6153   2.567   1.956   0.563  0.1968 -0.6204  0.0162
 1523WAT     H1 6154   2.638   1.892   0.567 -0.9741 -2.1259 -1.5552
 1523WAT     H2 6155   2.601   2.027   0.509  0.6186 -1.1658 -0.4353
 1523WAT    EPW 6156   2.581   1.957   0.557  0.0980 -0.8909 -0.2506
 1524WAT      O 6157   2.165   0.193   0.296  0.0802  0.8722  0.3470
 1524WAT     H1 6158   2.146   0.283   0.324  1.2724  1.4743 -0.6593
 1524WAT     H2 6159   2.253   0.176   0.329  0.0436  0.2448  0.1242
 1524WAT    EPW 6160   2.174   0.203   0.304  0.2326  0.8689  0.1849
 1525WAT      O 6161   0.356   3.877   2.187 -0.0674 -0.2796 -0.0412
 1525WAT     H1 6162   0.428   3.830   2.146  0.2055  0.3265 -0.2727
 1525WAT     H2 6163   0.373   3.969   2.168  0.2999  0.0788  1.7762
 1525WAT    EPW 6164   0.367   3.883   2.179  0.0170 -0.1524  0.1680
 1526WAT      O 6165   2.671   0.505   2.007 -0.2440  0.4526 -0.0902
 1526WAT     H1 6166   2.607   0.481   1.940 -0.1587 -0.4305  0.1376
 1526WAT     H2 6167   2.658   0.599   2.020 -0.2087  0.6572 -1.4101
 1526WAT    EPW 6168   2.661   0.514   2.000 -0.2281  0.3631 -0.2342
 1527WAT      O 6169   1.705   0.849   2.030  0.0874 -0.3343  0.1161
 1527WAT     H1 6170   1.661   0.827   1.947 -0.2219  0.1797  0.1358
 1527WAT     H2 6171   1.700   0.945   2.034 -2.3745 -0.4469  2.0405
 1527WAT    EPW 6172   1.698   0.859   2.019 -0.2781 -0.2814  0.3725
 1528WAT      O 6173   2.231   1.199   2.586 -0.1701  0.0892  0.1830
 1528WAT     H1 6174   2.204   1.291   2.588 -0.9186 -0.0761 -1.2065
 1528WAT     H2 6175   2.260   1.181   2.675  1.2163  2.0285  0.1833
 1528WAT    EPW 6176   2.231   1.209   2.598 -0.0860  0.3232 -0.0002
 1529WAT      O 6177   1.244   0.932   2.112 -0.1112 -0.0110 -0.0588
 1529WAT     H1 6178   1.199   0.942   2.029 -2.5571 -2.5209  0.7878
 1529WAT     H2 6179   1.201   0.994   2.171 -0.7590 -0.6299  0.1319
 1529WAT    EPW 6180   1.232   0.942   2.109 -0.5192 -0.4236  0.0780
 1530WAT      O 6181   1.906   2.934   3.740 -0.3080  0.3667  0.1332
 1530WAT     H1 6182   1.979   2.876   3.762 -0.7909  0.5460  2.5900
 1530WAT     H2 6183   1.918   3.009   3.798 -2.1623  0.6150  0.2581
 1530WAT    EPW 6184   1.917   2.936   3.751 -0.6163  0.4231  0.4737
 1531WAT      O 6185   2.986   4.122   1.004 -0.3477 -0.2313  0.2494
 1531WAT     H1 6186   2.944   4.201   0.970  1.0798  0.3734 -0.1582
 1531WAT     H2 6187   2.913   4.069   1.036 -1.3846  0.9788 -0.0145
 1531WAT    EPW 6188   2.971   4.125   1.004 -0.2962  0.0080  0.1609
 1532WAT      O 6189   1.560   1.100   1.181 -0.1629 -0.6220 -0.5061
 1532WAT     H1 6190   1.471   1.110   1.214  0.2547  1.9375  0.1212
 1532WAT     H2 6191   1.589   1.015   1.213 -1.5690 -0.4529  1.4009
 1532WAT    EPW 6192   1.552   1.090   1.190 -0.2933 -0.2621 -0.1718
 1533WAT      O 6193   0.453   3.268   1.793  0.6516  0.7414  0.3611
 1533WAT     H1 6194   0.530   3.219   1.764 -0.1969 -1.7297  1.9753
 1533WAT     H2 6195   0.405   3.286   1.712  2.0675  0.8624 -0.4933
 1533WAT    EPW 6196   0.457   3.264   1.779  0.7264  0.4315  0.4613
 1534WAT      O 6197   2.060   2.650   0.917 -0.5113 -0.2242 -0.1726
 1534WAT     H1 6198   2.010   2.702   0.853 -0.3900 -1.8640 -1.6786
 1534WAT     H2 6199   2.149   2.685   0.912 -1.0056  1.2472  0.8961
 1534WAT    EPW 6200   2.065   2.661   0.908 -0.5605 -0.2464 -0.2303
 1535WAT      O 6201   1.455   0.485   0.647 -0.0080  0.2696 -0.0202
 1535WAT     H1 6202   1.478   0.574   0.623  0.9273 -0.0436 -0.3282
 1535WAT     H2 6203   1.416   0.492   0.734  0.0813  0.9669 -0.0376
 1535WAT    EPW 6204   1.453   0.498   0.655  0.1272  0.3203 -0.0631
 1536WAT      O 6205   2.710   2.178   0.893  0.2803  0.4105 -0.0153
 1536WAT     H1 6206   2.664   2.205   0.973  0.8422  0.3500  0.3352
 1536WAT     H2 6207   2.671   2.231   0.824  1.3761  2.1756  0.6586
 1536WAT    EPW 6208   2.699   2.188   0.894  0.4989  0.6353  0.1198
 1537WAT      O 6209   0.383   1.001   1.772 -0.3935  0.0287  0.1222
 1537WAT     H1 6210   0.345   0.913   1.772  0.1494 -0.2255  1.3769
 1537WAT     H2 6211   0.430   1.007   1.689 -1.2967 -0.4770 -0.4376
 1537WAT    EPW 6212   0.384   0.990   1.761 -0.4410 -0.0715  0.2138
 1538WAT      O 6213   0.925   1.770   1.088 -0.3689 -0.1278 -0.0222
 1538WAT     H1 6214   0.989   1.805   1.025  1.1159 -0.1593  1.3905
 1538WAT     H2 6215   0.895   1.847   1.137 -0.6822 -0.2362 -0.0442
 1538WAT    EPW 6216   0.930   1.785   1.086 -0.2144 -0.1463  0.1612
 1539WAT      O 6217   1.451   1.676   1.594  0.3682 -0.1337  0.5272
 1539WAT     H1 6218   1.539   1.638   1.589  0.3125 -0.1876 -0.0833
 1539WAT     H2 6219   1.397   1.617   1.541  0.1067  0.3011  0.3124
 1539WAT    EPW 6220   1.456   1.663   1.586  0.3264 -0.0835  0.4183
 1540WAT      O 6221   1.207   4.080   2.164 -0.2805 -0.3588 -0.7586
 1540WAT     H1 6222   1.162   4.057   2.246 -1.0437  0.1547 -1.0195
 1540WAT     H2 6223   1.300   4.069   2.184 -0.4628 -0.4022  0.1309
 1540WAT    EPW 6224   1.213   4.076   2.178 -0.4052 -0.2968 -0.6757
 1541WAT      O 6225   3.690   0.502   1.084  0.0921 -0.2559 -0.0810
 1541WAT     H1 6226   3.601   0.527   1.108  0.2943  0.1866  0.2212
 1541WAT     H2 6227   3.716   0.565   1.017  1.1773  1.4051  1.8021
 1541WAT    EPW 6228   3.682   0.513   1.078  0.2619  0.0215  0.2072
 1542WAT      O 6229   1.643   3.950   3.847  0.1189 -0.0776  0.3009
 1542WAT     H1 6230   1.578   4.019   3.838 -1.5876 -1.6987 -0.2904
 1542WAT     H2 6231   1.602   3.885   3.903  1.0197 -1.3955 -0.5156
 1542WAT    EPW 6232   1.629   3.951   3.853  0.0126 -0.4653  0.1152
 1543WAT      O 6233   0.839   3.757   2.561 -0.0246  0.6077 -0.3272
 1543WAT     H1 6234   0.889   3.834   2.532  2.0338 -0.3805  0.3913
 1543WAT     H2 6235   0.784   3.736   2.486  1.3831  1.1784 -1.5884
 1543WAT    EPW 6236   0.838   3.765   2.547  0.4325  0.5526 -0.3988
 1544WAT      O 6237   2.287   1.306   1.048  0.3199 -0.4314  0.4986
 1544WAT     H1 6238   2.202   1.330   1.013  1.2756  1.2069 -0.8519
 1544WAT     H2 6239   2.285   1.336   1.139 -0.1227  0.8271  0.1035
 1544WAT    EPW 6240   2.276   1.313   1.055  0.3875 -0.0493  0.2684
 1545WAT      O 6241   0.935   0.366   0.030 -0.0058 -0.6706  0.0258
 1545WAT     H1 6242   0.842   0.342   0.025  0.2675 -2.3572  1.6809
 1545WAT     H2 6243   0.936   0.461   0.024 -1.9188 -0.5720  0.6449
 1545WAT    EPW 6244   0.923   0.375   0.029 -0.2221 -0.8800  0.3258
 1546WAT      O 6245   1.263   2.604   0.794  0.2371 -0.6752  0.7149
 1546WAT     H1 6246   1.305   2.520   0.771 -0.3000 -0.6568 -0.4195
 1546WAT     H2 6247   1.170   2.588   0.782 -0.2888 -1.0260  4.2336
 1546WAT    EPW 6248   1.257   2.591   0.789  0.0969 -0.7190  1.0294
 1547WAT      O 6249   1.201   3.952   3.806 -0.1903  0.2183 -0.1149
 1547WAT     H1 6250   1.288   3.935   3.770  0.7221  1.4453  1.3550
 1547WAT     H2 6251   1.181   4.042   3.778 -2.0709 -0.8062 -2.3817
 1547WAT    EPW 6252   1.210   3.962   3.798 -0.3180  0.2450 -0.2200
 1548WAT      O 6253   2.139   0.481   3.904 -0.6733 -0.0800 -0.3234
 1548WAT     H1 6254   2.215   0.520   3.860 -0.6427 -0.9569 -1.0591
 1548WAT     H2 6255   2.093   0.434   3.836  0.1040 -2.6128  0.7933
 1548WAT    EPW 6256   2.143   0.480   3.889 -0.5668 -0.5297 -0.2732
 1549WAT      O 6257   1.734   2.819   3.478  0.5468  0.1744 -0.3597
 1549WAT     H1 6258   1.682   2.834   3.557 -1.0994  1.0283 -1.5323
 1549WAT     H2 6259   1.816   2.864   3.495 -0.8887  2.9733 -0.1921
 1549WAT    EPW 6260   1.738   2.827   3.491  0.1404  0.6562 -0.4922
 1550WAT      O 6261   0.917   0.802   2.761 -0.3958  0.1859 -0.2636
 1550WAT     H1 6262   0.869   0.869   2.712 -0.1556  1.2425  0.8827
 1550WAT     H2 6263   1.008   0.833   2.761 -0.1569 -0.5049 -0.2993
 1550WAT    EPW 6264   0.923   0.815   2.754 -0.3326  0.2341 -0.1171
 1551WAT      O 6265   0.582   0.433   2.775  0.3322  0.6116  0.2191
 1551WAT     H1 6266   0.533   0.366   2.726  1.1922 -0.0239  0.2172
 1551WAT     H2 6267   0.548   0.426   2.865 -0.4414  1.0123 -0.0281
 1551WAT    EPW 6268   0.571   0.423   2.780  0.3436  0.5806  0.1863
 1552WAT      O 6269   0.927   0.978   0.374  0.5487  0.0267 -0.1870
 1552WAT     H1 6270   0.848   1.005   0.421  1.2463  2.7952 -0.4025
 1552WAT     H2 6271   0.981   0.933   0.440  0.6315  2.0186  1.1983
 1552WAT    EPW 6272   0.924   0.976   0.389  0.6516  0.6545 -0.0327
 1553WAT      O 6273   0.861   2.651   3.537 -0.0725 -0.0419 -0.7278
 1553WAT     H1 6274   0.883   2.568   3.579 -1.2737  1.1870  2.7462
 1553WAT     H2 6275   0.942   2.702   3.540  0.0106 -0.1890 -0.4627
 1553WAT    EPW 6276   0.874   2.647   3.543 -0.2200  0.1007 -0.2346
 1554WAT      O 6277   3.267   0.960   3.095 -0.5106  0.2487  0.5742
 1554WAT     H1 6278   3.250   1.053   3.111 -1.2616  0.1661  0.2791
 1554WAT     H2 6279   3.194   0.931   3.041 -1.1507 -0.9011  1.9952
 1554WAT    EPW 6280   3.255   0.968   3.090 -0.6941  0.0861  0.7227
 1555WAT      O 6281   0.469   1.349   0.149 -0.2466 -0.3644  0.1200
 1555WAT     H1 6282   0.446   1.273   0.202  0.0529 -1.1744 -0.8598
 1555WAT     H2 6283   0.410   1.418   0.178 -1.3644 -1.3201  0.2081
 1555WAT    EPW 6284   0.458   1.348   0.160 -0.3545 -0.5973  0.0024
 1556WAT      O 6285   1.018   3.972   1.572  0.1961  0.3950 -0.0685
 1556WAT     H1 6286   1.017   3.988   1.477  0.4327  0.1708 -0.1100
 1556WAT     H2 6287   1.024   3.877   1.580 -0.4657  0.3695  0.1749
 1556WAT    EPW 6288   1.018   3.961   1.560  0.1400  0.3621 -0.0419
 1557WAT      O 6289   3.207   2.289   2.783 -0.8016  0.2010 -0.0192
 1557WAT     H1 6290   3.223   2.209   2.833  1.2521  1.1315  0.9349
 1557WAT     H2 6291   3.130   2.269   2.730 -0.1574 -2.5126 -0.0668
 1557WAT    EPW 6292   3.199   2.276   2.783 -0.4458 -0.0342  0.1004
 1558WAT      O 6293   1.296   1.760   3.004  0.2447 -0.0087 -0.0395
 1558WAT     H1 6294   1.304   1.673   2.964  0.3327  0.3923 -0.9119
 1558WAT     H2 6295   1.273   1.817   2.931  2.3075  1.0970  0.1166
 1558WAT    EPW 6296   1.294   1.756   2.989  0.5284  0.1901 -0.1340
 1559WAT      O 6297   1.644   2.012   1.797  0.3929  0.1148  0.0407
 1559WAT     H1 6298   1.619   2.085   1.740 -1.7604  1.1349  2.0792
 1559WAT     H2 6299   1.739   2.018   1.804  0.4340  1.6694 -1.2245
 1559WAT    EPW 6300   1.653   2.023   1.791  0.1143  0.4544  0.1427
 1560WAT      O 6301   0.530   2.791   2.940 -0.7820 -0.1182 -0.2671
 1560WAT     H1 6302   0.584   2.868   2.922  0.3001 -0.5212  1.1084
 1560WAT     H2 6303   0.448   2.827   2.973 -0.6822  0.4690 -0.6503
 1560WAT    EPW 6304   0.526   2.806   2.942 -0.6261 -0.0939 -0.1362
 1561WAT      O 6305   0.437   3.315   0.502  0.2059  0.0068  0.2437
 1561WAT     H1 6306   0.352   3.279   0.476  0.7788 -0.2017 -1.4808
 1561WAT     H2 6307   0.496   3.239   0.502  1.0737  0.6043 -1.8256
 1561WAT    EPW 6308   0.434   3.300   0.499  0.3960  0.0581 -0.2567
 1562WAT      O 6309   0.762   2.222   1.009 -0.0032  0.4246  0.0039
 1562WAT     H1 6310   0.797   2.311   1.012 -0.0343  0.4737 -0.8436
 1562WAT     H2 6311   0.826   2.173   0.956  0.5327 -0.3046  1.2707
 1562WAT    EPW 6312   0.775   2.227   1.002  0.0634  0.3349  0.0592
 1563WAT      O 6313   1.890   1.747   1.119  0.3618  0.0581  0.1722
 1563WAT     H1 6314   1.940   1.791   1.050  0.1674  1.3050  0.8110
 1563WAT     H2 6315   1.914   1.793   1.199 -0.4960 -0.4610  0.7394
 1563WAT    EPW 6316   1.900   1.759   1.120  0.2230  0.1541  0.3313
 1564WAT      O 6317   1.311   1.451   0.015  0.3208 -0.1890  0.1140
 1564WAT     H1 6318   1.320   1.541  -0.016 -0.9145  0.7909  2.3751
 1564WAT     H2 6319   1.359   1.449   0.097  0.8814 -1.8070 -0.2271
 1564WAT    EPW 6320   1.319   1.463   0.021  0.2318 -0.2732  0.3672
 1565WAT      O 6321   0.206   3.719   0.922 -0.5793 -0.0151 -0.3561
 1565WAT     H1 6322   0.209   3.624   0.936 -1.3260  0.0308  0.1858
 1565WAT     H2 6323   0.289   3.751   0.958 -0.1512 -0.4945 -0.8873
 1565WAT    EPW 6324   0.217   3.711   0.929 -0.6213 -0.0723 -0.3547
 1566WAT      O 6325   0.215   2.210   2.317 -0.0617 -0.4601  0.1241
 1566WAT     H1 6326   0.207   2.292   2.367 -1.2480 -0.0131 -0.7446
 1566WAT     H2 6327   0.308   2.204   2.297  0.2139  0.1101  1.1154
 1566WAT    EPW 6328   0.226   2.220   2.321 -0.1818 -0.3260  0.1402
 1567WAT      O 6329   2.158   3.772   3.118  0.2578  0.5144  0.2107
 1567WAT     H1 6330   2.066   3.749   3.132  0.9125 -3.3829 -0.7644
 1567WAT     H2 6331   2.170   3.769   3.023  2.2311 -3.9100  0.3696
 1567WAT    EPW 6332   2.147   3.769   3.107  0.6044 -0.5832  0.1030
 1568WAT      O 6333   3.299   1.559   2.364 -0.8567 -0.3178 -0.4666
 1568WAT     H1 6334   3.240   1.590   2.296 -1.5184 -1.3042 -0.3762
 1568WAT     H2 6335   3.247   1.562   2.444 -0.5463 -0.4864 -0.2547
 1568WAT    EPW 6336   3.285   1.563   2.366 -0.9030 -0.4701 -0.4268
 1569WAT      O 6337   0.601   3.046   3.398 -0.5509 -0.1572  0.0003
 1569WAT     H1 6338   0.523   3.018   3.351  0.2288 -1.2679 -0.6878
 1569WAT     H2 6339   0.605   2.989   3.475 -0.6954  0.2574  0.3207
 1569WAT    EPW 6340   0.591   3.035   3.402 -0.4671 -0.2490 -0.0482
 1570WAT      O 6341   3.566   4.032   3.852 -0.1926  0.7958  0.4127
 1570WAT     H1 6342   3.495   4.090   3.821 -0.1438  0.7296  0.1722
 1570WAT     H2 6343   3.564   3.958   3.791  1.4289  1.7535 -0.8922
 1570WAT    EPW 6344   3.556   4.030   3.840  0.0277  0.9134  0.2088
 1571WAT      O 6345   1.376   3.759   2.885  0.2099  0.2945 -0.2915
 1571WAT     H1 6346   1.413   3.699   2.820  1.9162  1.7704 -0.7464
 1571WAT     H2 6347   1.300   3.798   2.841 -0.4365 -0.8998 -0.2765
 1571WAT    EPW 6348   1.371   3.756   2.871  0.3497  0.3317 -0.3495
 1572WAT      O 6349   0.460   3.508   0.278 -0.2596  0.8563  1.0383
 1572WAT     H1 6350   0.554   3.524   0.279  0.0978 -0.8161 -0.0112
 1572WAT     H2 6351   0.437   3.494   0.369  0.3949  1.8330  1.3675
 1572WAT    EPW 6352   0.469   3.508   0.290 -0.1261  0.7646  0.9433
 1573WAT      O 6353   1.921   1.395   3.110 -0.0246  0.7798  0.0573
 1573WAT     H1 6354   1.878   1.447   3.178 -1.1073  0.4352 -0.3531
 1573WAT     H2 6355   1.988   1.345   3.157 -2.3020 -1.2574  1.3292
 1573WAT    EPW 6356   1.924   1.396   3.125 -0.4678  0.4657  0.1709
 1574WAT      O 6357   2.267   3.171   3.998 -0.4000 -0.2770  0.2354
 1574WAT     H1 6358   2.351   3.211   4.021 -0.5041  0.4788 -0.6254
 1574WAT     H2 6359   2.289   3.104   3.934 -0.2236 -1.6735  1.6966
 1574WAT    EPW 6360   2.281   3.167   3.992 -0.3905 -0.3615  0.3146
 1575WAT      O 6361   2.289   0.325   2.418 -0.4325 -0.0507 -0.2002
 1575WAT     H1 6362   2.219   0.272   2.380  0.8902 -0.6861 -1.8712
 1575WAT     H2 6363   2.327   0.371   2.344  0.1733  1.2040  0.8580
 1575WAT    EPW 6364   2.285   0.324   2.403 -0.1781  0.0310 -0.2810
 1576WAT      O 6365   2.139   0.268   1.891  0.8313  0.2128 -0.0255
 1576WAT     H1 6366   2.234   0.264   1.908  1.1114  2.4952 -0.6883
 1576WAT     H2 6367   2.114   0.356   1.919 -0.7144  0.3521 -1.6820
 1576WAT    EPW 6368   2.149   0.279   1.897  0.6644  0.5322 -0.3314
 1577WAT      O 6369   2.050   2.809   0.645 -0.1419  0.0282 -0.3111
 1577WAT     H1 6370   2.128   2.864   0.653  0.8602 -1.4527  0.5366
 1577WAT     H2 6371   2.026   2.816   0.553  0.2324  1.4887 -0.3310
 1577WAT    EPW 6372   2.057   2.817   0.634  0.0396  0.0255 -0.2019
 1578WAT      O 6373   0.501   2.310   3.929 -0.2525 -0.0872 -0.1319
 1578WAT     H1 6374   0.516   2.362   4.008 -2.1695 -0.1214  0.2965
 1578WAT     H2 6375   0.453   2.368   3.871 -2.1420 -1.2022  0.2216
 1578WAT    EPW 6376   0.497   2.324   3.932 -0.7545 -0.2388 -0.0288
 1579WAT      O 6377   3.326   2.620   2.683  0.9669 -0.0960 -0.0068
 1579WAT     H1 6378   3.335   2.602   2.777  3.8525 -0.7109 -0.2914
 1579WAT     H2 6379   3.335   2.715   2.677  0.5923 -0.0339  0.3533
 1579WAT    EPW 6380   3.329   2.630   2.695  1.2981 -0.1689  0.0032
 1580WAT      O 6381   0.442   0.072   2.426  0.2126 -0.0768  0.2895
 1580WAT     H1 6382   0.358   0.026   2.422 -0.1054  0.3361  1.6408
 1580WAT     H2 6383   0.430   0.138   2.494  1.7489 -0.2631  0.7920
 1580WAT    EPW 6384   0.430   0.075   2.434  0.3733 -0.0469  0.5340
 1581WAT      O 6385   2.956   2.099   1.019  0.0320 -0.8191 -0.0836
 1581WAT     H1 6386   2.876   2.117   0.971 -0.4655 -1.1373  0.6043
 1581WAT     H2 6387   3.017   2.066   0.954 -1.1403 -2.7881 -0.2518
 1581WAT    EPW 6388   2.954   2.097   1.004 -0.1882 -1.1208 -0.0150
 1582WAT      O 6389   3.003   0.310   1.538 -0.0975  0.4654 -0.5876
 1582WAT     H1 6390   3.075   0.296   1.600 -1.9556  0.8939  1.8122
 1582WAT     H2 6391   2.972   0.222   1.516  0.5521  0.3111 -0.9109
 1582WAT    EPW 6392   3.009   0.297   1.543 -0.2569  0.5016 -0.3137
 1583WAT      O 6393   1.586   3.533   1.107  0.0593 -0.4181 -0.1074
 1583WAT     H1 6394   1.652   3.552   1.041 -0.9316  2.1982 -0.4480
 1583WAT     H2 6395   1.635   3.525   1.189  1.0480 -1.3865 -0.7721
 1583WAT    EPW 6396   1.601   3.534   1.109  0.0590 -0.2007 -0.2400
 1584WAT      O 6397   0.868   2.625   3.260  0.0289 -0.1211 -0.6692
 1584WAT     H1 6398   0.884   2.532   3.244 -0.0665 -0.5945  1.6108
 1584WAT     H2 6399   0.881   2.635   3.354  1.6706  2.5298 -1.0976
 1584WAT    EPW 6400   0.872   2.614   3.271  0.2329  0.1661 -0.4250
 1585WAT      O 6401   3.111   2.751   3.194 -0.1964  0.1974  0.2254
 1585WAT     H1 6402   3.020   2.780   3.189 -0.3285 -0.0205  1.2047
 1585WAT     H2 6403   3.114   2.694   3.271  0.5484 -0.6049 -0.3891
 1585WAT    EPW 6404   3.099   2.748   3.204 -0.1156  0.0628  0.2735
 1586WAT      O 6405   1.678   3.863   3.577 -0.2727  0.4319  0.3504
 1586WAT     H1 6406   1.683   3.875   3.672 -1.7299  1.6570  0.3014
 1586WAT     H2 6407   1.685   3.768   3.565  0.6815  0.3086  1.6049
 1586WAT    EPW 6408   1.680   3.852   3.588 -0.3391  0.5772  0.5094
 1587WAT      O 6409   0.553   2.415   1.668 -0.2137 -0.1323 -0.2108
 1587WAT     H1 6410   0.490   2.424   1.739  0.7893  1.0838  0.5759
 1587WAT     H2 6411   0.507   2.364   1.602 -2.0101  0.6707  0.3378
 1587WAT    EPW 6412   0.539   2.409   1.669 -0.3183  0.1340 -0.0347
 1588WAT      O 6413   0.667   1.261   1.728  0.4416  0.1218  0.1287
 1588WAT     H1 6414   0.713   1.179   1.712  0.7104 -0.5576  3.5461
 1588WAT     H2 6415   0.577   1.235   1.749  0.3232  0.7685  0.4762
 1588WAT    EPW 6416   0.661   1.247   1.729  0.4614  0.1175  0.6253
 1589WAT      O 6417   3.579   4.213   1.928 -0.1223 -0.2468 -0.9377
 1589WAT     H1 6418   3.509   4.261   1.885 -0.6272  1.4009  1.5341
 1589WAT     H2 6419   3.590   4.256   2.013  3.1375 -1.1480 -0.7565
 1589WAT    EPW 6420   3.572   4.225   1.933  0.2411 -0.1484 -0.5878
 1590WAT      O 6421   0.011   0.694   0.865 -0.4504  0.1543  0.4890
 1590WAT     H1 6422  -0.070   0.656   0.832  0.4054 -1.3132 -0.0586
 1590WAT     H2 6423   0.044   0.747   0.792 -1.5745  1.9300  1.2036
 1590WAT    EPW 6424   0.005   0.696   0.851 -0.4858  0.1950  0.5110
 1591WAT      O 6425   2.727   2.759   3.386 -0.1242 -0.2595 -0.3277
 1591WAT     H1 6426   2.681   2.694   3.333  1.0490 -0.6494 -0.9064
 1591WAT     H2 6427   2.752   2.827   3.323  1.0809 -0.6154 -0.2644
 1591WAT    EPW 6428   2.724   2.760   3.371  0.1895 -0.3579 -0.3957
 1592WAT      O 6429   2.407   2.667   3.456  0.0490  0.5075 -0.1975
 1592WAT     H1 6430   2.400   2.576   3.484 -0.9109  0.5678 -0.2089
 1592WAT     H2 6431   2.467   2.665   3.382 -0.2397 -0.1690 -0.4181
 1592WAT    EPW 6432   2.414   2.655   3.450 -0.1157  0.4262 -0.2281
 1593WAT      O 6433   0.254   0.488   2.426  0.1332 -0.4807 -0.1646
 1593WAT     H1 6434   0.222   0.552   2.489  0.3012  0.7383 -1.2623
 1593WAT     H2 6435   0.179   0.432   2.407 -1.4841  2.1725 -2.5339
 1593WAT    EPW 6436   0.240   0.489   2.431 -0.0579  0.0300 -0.6219
 1594WAT      O 6437   0.774   0.471   2.581 -0.5460  0.2285 -0.1084
 1594WAT     H1 6438   0.774   0.379   2.605  0.2224  0.0912 -0.5965
 1594WAT     H2 6439   0.730   0.515   2.653  0.7171 -0.3027  1.0222
 1594WAT    EPW 6440   0.768   0.465   2.593 -0.2781  0.1404 -0.0237
 1595WAT      O 6441   2.367   3.961   1.314 -0.0476 -0.4072 -0.1817
 1595WAT     H1 6442   2.327   3.883   1.351 -0.4245 -0.8817 -1.5454
 1595WAT     H2 6443   2.461   3.943   1.315 -0.0836 -0.5913  0.1222
 1595WAT    EPW 6444   2.374   3.949   1.319 -0.1020 -0.4941 -0.3215
 1596WAT      O 6445   1.609   3.099   1.114 -0.4641 -0.6497 -0.0410
 1596WAT     H1 6446   1.588   3.163   1.047 -1.2486 -1.5590 -0.6995
 1596WAT     H2 6447   1.627   3.150   1.193 -2.8258  0.3293 -0.0626
 1596WAT    EPW 6448   1.608   3.114   1.116 -0.8791 -0.6405 -0.1307
 1597WAT      O 6449   0.265   2.929   0.690 -0.4944  0.0663  0.1330
 1597WAT     H1 6450   0.203   2.868   0.651 -0.6284  0.2590  0.0443
 1597WAT     H2 6451   0.249   3.012   0.645 -1.8891  0.7813  1.8260
 1597WAT    EPW 6452   0.255   2.932   0.679 -0.6960  0.1860  0.3446
 1598WAT      O 6453   2.133   3.283   1.945  0.0962 -0.4020  0.6595
 1598WAT     H1 6454   2.079   3.242   1.877  0.0971  0.4278  0.1495
 1598WAT     H2 6455   2.214   3.307   1.899  0.1378  0.0744  0.9835
 1598WAT    EPW 6456   2.137   3.281   1.930  0.1018 -0.2297  0.6349
 1599WAT      O 6457   3.495   4.115   3.537  0.2772 -0.1476 -0.0112
 1599WAT     H1 6458   3.589   4.127   3.550  0.4375  2.3610 -2.6876
 1599WAT     H2 6459   3.488   4.050   3.467 -0.0394 -0.6338  0.4575
 1599WAT    EPW 6460   3.506   4.108   3.530  0.2566  0.1192 -0.3023
 1600WAT      O 6461   1.648   0.815   3.684  0.3352 -0.2631  0.6421
 1600WAT     H1 6462   1.704   0.779   3.752  0.7368 -0.0206  0.4462
 1600WAT     H2 6463   1.679   0.904   3.672 -0.9975  0.3636  1.5113
 1600WAT    EPW 6464   1.659   0.822   3.691  0.2124 -0.1485  0.7309
 1601WAT      O 6465   2.973   0.967   3.875 -0.0597  0.0730 -0.3370
 1601WAT     H1 6466   2.987   1.061   3.884  0.1395 -0.0213  0.3934
 1601WAT     H2 6467   2.902   0.960   3.811  0.1308  0.7039 -0.6293
 1601WAT    EPW 6468   2.965   0.979   3.868 -0.0083  0.1438 -0.2792
 1602WAT      O 6469   1.605   2.688   3.235 -0.0452 -0.0677  0.2046
 1602WAT     H1 6470   1.619   2.709   3.142 -0.6749 -0.0086  0.1164
 1602WAT     H2 6471   1.652   2.756   3.283 -0.5870  0.5224 -0.0790
 1602WAT    EPW 6472   1.613   2.699   3.229 -0.1997  0.0179  0.1556
 1603WAT      O 6473   3.191   2.114   1.923  0.2803  0.5015 -0.3659
 1603WAT     H1 6474   3.277   2.137   1.958  0.1668  0.5279 -0.1052
 1603WAT     H2 6475   3.147   2.198   1.910  0.6128  0.5414 -1.3263
 1603WAT    EPW 6476   3.196   2.128   1.926  0.3092  0.5102 -0.4582
 1604WAT      O 6477   3.083   2.259   2.204 -0.2545 -0.3332 -0.2476
 1604WAT     H1 6478   3.134   2.339   2.193  0.1756 -0.4926  0.4689
 1604WAT     H2 6479   3.107   2.204   2.129 -1.2095  0.5413 -1.2132
 1604WAT    EPW 6480   3.093   2.262   2.193 -0.3237 -0.2388 -0.2804
 1605WAT      O 6481   2.107   4.157   3.438  0.3291 -0.2623  0.3308
 1605WAT     H1 6482   2.047   4.137   3.510  0.7814  0.0471  0.7969
 1605WAT     H2 6483   2.186   4.191   3.481  0.9735 -0.9844 -0.2581
 1605WAT    EPW 6484   2.110   4.159   3.453  0.4737 -0.3167  0.3146
 1606WAT      O 6485   2.337   2.756   0.858  0.4798  0.4711 -1.0523
 1606WAT     H1 6486   2.350   2.708   0.777  0.4775 -3.4840  1.0633
 1606WAT     H2 6487   2.415   2.737   0.911 -1.0734 -0.1324  1.1876
 1606WAT    EPW 6488   2.349   2.747   0.855  0.2746 -0.1302 -0.4779
 1607WAT      O 6489   1.878   2.861   1.404  0.1385  0.5249 -0.5443
 1607WAT     H1 6490   1.966   2.884   1.433  0.5317 -2.7101  1.1896
 1607WAT     H2 6491   1.889   2.835   1.313  0.9831  0.1959 -0.3598
 1607WAT    EPW 6492   1.891   2.861   1.396  0.3017  0.0549 -0.2912
 1608WAT      O 6493   2.524   4.050   3.370  0.8132 -0.0475  0.1983
 1608WAT     H1 6494   2.571   4.074   3.451 -0.4709  1.2548  0.6002
 1608WAT     H2 6495   2.465   3.980   3.397 -0.1610  0.8988  0.6101
 1608WAT    EPW 6496   2.522   4.044   3.384  0.5153  0.2491  0.3056
 1609WAT      O 6497   2.437   3.504   2.849 -0.0333  0.4244 -0.2485
 1609WAT     H1 6498   2.376   3.436   2.820  0.3739 -0.4867  0.9379
 1609WAT     H2 6499   2.505   3.506   2.782  0.0346 -0.4685 -0.2154
 1609WAT    EPW 6500   2.438   3.496   2.836  0.0294  0.1865 -0.0876
 1610WAT      O 6501   0.692   2.057   2.514 -1.0265  0.7371  0.6063
 1610WAT     H1 6502   0.668   2.150   2.506 -0.2583  0.9990  1.1522
 1610WAT     H2 6503   0.783   2.054   2.484 -0.5752  0.4313  1.9274
 1610WAT    EPW 6504   0.701   2.069   2.509 -0.8657  0.7313  0.8525
 1611WAT      O 6505   3.453   1.621   1.336  0.1394  0.7008  0.5505
 1611WAT     H1 6506   3.501   1.560   1.393 -1.1823 -1.5022 -0.5314
 1611WAT     H2 6507   3.362   1.591   1.341 -0.3677  1.8656 -0.9461
 1611WAT    EPW 6508   3.447   1.609   1.344 -0.1018  0.5638  0.2104
 1612WAT      O 6509   1.859   0.957   1.164  0.2043 -0.2917 -0.3110
 1612WAT     H1 6510   1.823   1.021   1.103  1.4108  0.8064  0.0860
 1612WAT     H2 6511   1.857   1.001   1.249 -0.0918 -1.2522  0.1937
 1612WAT    EPW 6512   1.854   0.971   1.167  0.3244 -0.2736 -0.1921
 1613WAT      O 6513   3.670   1.528   2.172 -0.1854  0.1107 -0.1356
 1613WAT     H1 6514   3.695   1.438   2.153  1.3989  0.7402 -1.2750
 1613WAT     H2 6515   3.652   1.528   2.266 -0.6140 -1.4557 -0.1844
 1613WAT    EPW 6516   3.671   1.516   2.182 -0.0330 -0.0129 -0.2923
 1614WAT      O 6517   3.109   3.493   1.169 -0.2316 -0.1201  0.0385
 1614WAT     H1 6518   3.069   3.420   1.216 -2.1443  0.9541  0.1793
 1614WAT     H2 6519   3.129   3.457   1.082 -0.9328 -0.8853  0.1830
 1614WAT    EPW 6520   3.106   3.478   1.164 -0.5764 -0.0793  0.0761
 1615WAT      O 6521   0.077   4.123   3.555 -0.0158  0.3217  0.1230
 1615WAT     H1 6522   0.118   4.204   3.526 -0.2079  0.7361  0.9706
 1615WAT     H2 6523   0.148   4.059   3.558  0.5110  0.9261  1.1623
 1615WAT    EPW 6524   0.092   4.125   3.552  0.0283  0.4561  0.3719
 1616WAT      O 6525   1.994   1.147   2.216 -0.1217  0.0067  0.2468
 1616WAT     H1 6526   1.964   1.221   2.269 -2.5196 -1.1934  0.7030
 1616WAT     H2 6527   1.959   1.164   2.128 -0.8608 -0.6427  0.4013
 1616WAT    EPW 6528   1.986   1.159   2.211 -0.5355 -0.2372  0.3273
 1617WAT      O 6529   0.162   2.016   1.639 -0.1294  0.2367 -0.1493
 1617WAT     H1 6530   0.204   1.937   1.674  0.6495  0.4359 -0.6153
 1617WAT     H2 6531   0.220   2.088   1.665 -0.9951  0.7075  0.5469
 1617WAT    EPW 6532   0.175   2.015   1.647 -0.1408  0.3251 -0.1189
 1618WAT      O 6533   2.747   2.658   3.813 -0.0302 -0.5861 -0.6199
 1618WAT     H1 6534   2.722   2.672   3.904  2.0469  0.5693 -0.1578
 1618WAT     H2 6535   2.691   2.716   3.763 -0.1190 -0.0440  0.0927
 1618WAT    EPW 6536   2.737   2.667   3.818  0.2321 -0.3622 -0.4650
 1619WAT      O 6537   0.904   0.759   3.197  0.2172  0.5635 -0.0290
 1619WAT     H1 6538   0.844   0.765   3.123  0.1087 -1.0045 -0.1015
 1619WAT     H2 6539   0.852   0.789   3.272  0.0767  1.3685 -0.4289
 1619WAT    EPW 6540   0.889   0.764   3.198  0.1844  0.4629 -0.0913
 1620WAT      O 6541   1.087   3.791   1.809 -0.4974  0.3888 -0.0947
 1620WAT     H1 6542   1.167   3.794   1.861  0.5488  1.4843 -1.6469
 1620WAT     H2 6543   1.088   3.704   1.769 -0.0615  0.4043 -0.1227
 1620WAT    EPW 6544   1.098   3.780   1.810 -0.3019  0.5353 -0.3031
 1621WAT      O 6545   1.678   3.761   1.968 -0.3406  0.3612 -0.0941
 1621WAT     H1 6546   1.714   3.847   1.948 -0.6096  0.6940  0.7839
 1621WAT     H2 6547   1.585   3.769   1.946 -0.4578  0.4486  0.4192
 1621WAT    EPW 6548   1.670   3.774   1.963 -0.3915  0.4166  0.0894
 1622WAT      O 6549   0.799   1.757   1.476  0.3320 -0.0210 -0.3492
 1622WAT     H1 6550   0.809   1.846   1.440 -1.2040 -0.1826 -1.2729
 1622WAT     H2 6551   0.871   1.708   1.437  0.9550  0.7135 -0.1579
 1622WAT    EPW 6552   0.810   1.762   1.466  0.2116  0.0545 -0.4458
 1623WAT      O 6553   1.162   0.193   0.064  0.1734  0.5299  0.0550
 1623WAT     H1 6554   1.151   0.134  -0.011 -0.4735 -0.5411  0.9464
 1623WAT     H2 6555   1.090   0.256   0.055  0.6812  1.0096 -0.7376
 1623WAT    EPW 6556   1.151   0.193   0.053  0.1551  0.4519  0.0680
 1624WAT      O 6557   2.604   3.498   3.060 -0.5564  0.5599  0.1296
 1624WAT     H1 6558   2.548   3.484   2.984  1.2367  0.0535 -1.1663
 1624WAT     H2 6559   2.615   3.593   3.064  0.4109  0.5281 -1.1124
 1624WAT    EPW 6560   2.598   3.509   3.050 -0.1923  0.4889 -0.2052
 1625WAT      O 6561   2.875   2.552   0.543  0.2051  0.5087 -0.1757
 1625WAT     H1 6562   2.839   2.468   0.574 -0.7756  0.3997 -1.5078
 1625WAT     H2 6563   2.803   2.614   0.557  1.2231  1.3602  1.6174
 1625WAT    EPW 6564   2.861   2.549   0.549  0.2100  0.6066 -0.1149
 1626WAT      O 6565   2.974   0.042   2.713  0.3478  0.0868 -0.1157
 1626WAT     H1 6566   3.064   0.010   2.718 -0.2980 -1.7983  0.2750
 1626WAT     H2 6567   2.963   0.094   2.792  0.8354 -0.4179  0.2931
 1626WAT    EPW 6568   2.985   0.045   2.724  0.3269 -0.2284 -0.0102
 1627WAT      O 6569   3.064   0.086   3.612 -0.1985 -0.2410  0.5338
 1627WAT     H1 6570   3.092   0.155   3.552 -0.1267 -0.7693 -0.0477
 1627WAT     H2 6571   3.136   0.080   3.675  1.4328 -2.1001 -1.3818
 1627WAT    EPW 6572   3.077   0.095   3.613  0.0261 -0.5559  0.2044
 1628WAT      O 6573   1.163   3.017   3.623 -0.2877  0.0575  0.2530
 1628WAT     H1 6574   1.081   3.065   3.617  0.0123  0.4890 -0.5351
 1628WAT     H2 6575   1.138   2.925   3.620 -0.7762  0.1799  0.5191
 1628WAT    EPW 6576   1.149   3.011   3.622 -0.3125  0.1306  0.1841
 1629WAT      O 6577   2.786   3.208   3.944 -0.0308  0.2332  0.1446
 1629WAT     H1 6578   2.820   3.165   3.866 -1.5641 -0.7506 -0.0170
 1629WAT     H2 6579   2.820   3.155   4.017 -1.6603 -1.1156 -0.0415
 1629WAT    EPW 6580   2.795   3.196   3.944 -0.4479 -0.0745  0.0988
 1630WAT      O 6581   2.689   0.731   1.752  0.0111 -0.2309  0.2161
 1630WAT     H1 6582   2.759   0.673   1.782  0.7005  0.1649 -0.5902
 1630WAT     H2 6583   2.731   0.816   1.740  0.1698 -0.6255 -3.1369
 1630WAT    EPW 6584   2.704   0.734   1.754  0.1229 -0.2308 -0.3325
 1631WAT      O 6585   0.718   3.892   2.326  0.1163 -0.0151 -0.1657
 1631WAT     H1 6586   0.757   3.875   2.240 -1.0023 -2.2220 -0.3085
 1631WAT     H2 6587   0.672   3.975   2.314 -1.2811 -0.9891 -2.2276
 1631WAT    EPW 6588   0.717   3.901   2.313 -0.2155 -0.4347 -0.4565
 1632WAT      O 6589   2.055   2.088   2.721 -0.6962  0.4234  0.1489
 1632WAT     H1 6590   2.081   2.120   2.635  0.7509  3.0559  1.4765
 1632WAT     H2 6591   2.015   2.163   2.764 -1.3308 -0.8146  1.8407
 1632WAT    EPW 6592   2.053   2.102   2.716 -0.5890  0.6073  0.5471
 1633WAT      O 6593   1.479   2.281   2.502  0.0427 -0.2458 -0.1757
 1633WAT     H1 6594   1.503   2.321   2.585  1.0585 -1.4343  0.1322
 1633WAT     H2 6595   1.467   2.355   2.442  0.6242  0.5633  0.6869
 1633WAT    EPW 6596   1.481   2.296   2.505  0.2534 -0.2958 -0.0213
 1634WAT      O 6597   2.221   2.673   1.676  0.6875  0.6815  0.3239
 1634WAT     H1 6598   2.236   2.722   1.758 -1.3299 -0.1426  1.2630
 1634WAT     H2 6599   2.206   2.583   1.705 -0.5798  0.4730 -0.8909
 1634WAT    EPW 6600   2.221   2.668   1.691  0.2543  0.5453  0.2875
 1635WAT      O 6601   1.780   2.868   2.755  0.9468  0.0268  0.3404
 1635WAT     H1 6602   1.790   2.953   2.800 -0.1004  2.2221 -3.1897
 1635WAT     H2 6603   1.690   2.869   2.722  0.9565 -2.4537  0.0670
 1635WAT    EPW 6604   1.770   2.880   2.757  0.8100 -0.0108 -0.1612
 1636WAT      O 6605   1.342   4.210   1.330  0.4377 -0.5284 -0.6177
 1636WAT     H1 6606   1.385   4.266   1.395  1.6313  0.1848 -1.9698
 1636WAT     H2 6607   1.338   4.124   1.372  1.3899 -0.1485  0.2977
 1636WAT    EPW 6608   1.347   4.206   1.344  0.7207 -0.3842 -0.6753
 1637WAT      O 6609   1.696   2.123   2.698 -0.3046  0.6866  0.4152
 1637WAT     H1 6610   1.751   2.184   2.749 -0.2401  1.5145 -0.6166
 1637WAT     H2 6611   1.607   2.143   2.725 -0.2690  1.0922  0.2360
 1637WAT    EPW 6612   1.692   2.134   2.708 -0.2914  0.8493  0.2555
 1638WAT      O 6613   0.498   2.135   0.567 -0.3587  0.2784 -0.4530
 1638WAT     H1 6614   0.503   2.211   0.625  1.0524 -0.4123  0.3855
 1638WAT     H2 6615   0.414   2.093   0.588  0.0914  0.0896  1.0572
 1638WAT    EPW 6616   0.487   2.139   0.578 -0.1132  0.1624 -0.1432
 1639WAT      O 6617   3.573   4.125   0.167  0.1871  0.2935  0.3160
 1639WAT     H1 6618   3.499   4.068   0.148  0.6174  0.0081 -0.5248
 1639WAT     H2 6619   3.618   4.082   0.240 -0.0768  0.1053  0.3690
 1639WAT    EPW 6620   3.569   4.112   0.174  0.2090  0.2311  0.2121
 1640WAT      O 6621   2.573   1.843   3.349 -0.0713  0.6812 -0.1208
 1640WAT     H1 6622   2.490   1.812   3.387  0.7645 -0.7993  0.5631
 1640WAT     H2 6623   2.546   1.888   3.269 -1.5540  0.3611  0.1536
 1640WAT    EPW 6624   2.558   1.845   3.344 -0.1567  0.4437  0.0056
 1641WAT      O 6625   2.387   3.936   1.771  0.3630 -0.1412 -0.2215
 1641WAT     H1 6626   2.475   3.972   1.783  0.0826 -0.0656  1.8934
 1641WAT     H2 6627   2.401   3.845   1.746  1.0436 -0.0709 -0.1141
 1641WAT    EPW 6628   2.401   3.929   1.769  0.4158 -0.1220  0.0716
 1642WAT      O 6629   0.543   2.544   0.124 -0.0143 -0.2521 -0.0066
 1642WAT     H1 6630   0.627   2.582   0.146 -0.8638  1.8859 -0.2426
 1642WAT     H2 6631   0.515   2.499   0.204  1.6167 -1.6092 -0.1493
 1642WAT    EPW 6632   0.550   2.543   0.137  0.0888 -0.1491 -0.0565
 1643WAT      O 6633   0.509   2.638   0.608  0.0684 -0.3131  0.3185
 1643WAT     H1 6634   0.535   2.730   0.612  0.2389 -0.3754  0.6614
 1643WAT     H2 6635   0.565   2.600   0.540  1.2260 -0.5508  1.3681
 1643WAT    EPW 6636   0.520   2.645   0.599  0.2436 -0.3526  0.5022
 1644WAT      O 6637   2.071   3.508   2.504 -0.1719  0.0229  0.1778
 1644WAT     H1 6638   2.033   3.519   2.591 -0.5046 -0.0837  0.0459
 1644WAT     H2 6639   1.998   3.480   2.449 -0.0291  0.4186 -0.2122
 1644WAT    EPW 6640   2.056   3.506   2.508 -0.1969  0.0610  0.1090
 1645WAT      O 6641   1.451   0.339   2.791  0.0801 -0.6755 -0.3090
 1645WAT     H1 6642   1.525   0.280   2.775  0.4488 -0.5414  0.7586
 1645WAT     H2 6643   1.474   0.420   2.746 -0.4448 -1.3267 -1.8186
 1645WAT    EPW 6644   1.464   0.342   2.783  0.0595 -0.7437 -0.3673
 1646WAT      O 6645   0.684   1.721   1.743 -0.1709 -0.4318 -0.4762
 1646WAT     H1 6646   0.602   1.771   1.743 -0.9181 -1.5541  0.8785
 1646WAT     H2 6647   0.727   1.743   1.661 -0.9225  1.6679 -0.3456
 1646WAT    EPW 6648   0.679   1.730   1.732 -0.3686 -0.3029 -0.2803
 1647WAT      O 6649   2.913   0.683   0.633  0.3115  0.3012 -0.2593
 1647WAT     H1 6650   2.984   0.735   0.672  0.9133 -0.5450 -0.2062
 1647WAT     H2 6651   2.851   0.748   0.602  1.0356  1.0601 -0.1665
 1647WAT    EPW 6652   2.915   0.698   0.634  0.4864  0.2897 -0.2400
 1648WAT      O 6653   1.023   3.879   0.380 -0.0005 -0.3335 -0.2089
 1648WAT     H1 6654   1.000   3.941   0.448  0.2656 -2.6122  2.1120
 1648WAT     H2 6655   1.116   3.895   0.363  0.2786 -0.6145  0.9791
 1648WAT    EPW 6656   1.032   3.889   0.387  0.0714 -0.6711  0.2539
 1649WAT      O 6657   0.753   3.622   3.090  0.0574 -0.3544  0.0787
 1649WAT     H1 6658   0.824   3.680   3.062  0.1298  0.0111  0.9742
 1649WAT     H2 6659   0.708   3.598   3.009  0.1403  0.8096 -0.3317
 1649WAT    EPW 6660   0.757   3.626   3.075  0.0779 -0.1527  0.1427
 1650WAT      O 6661   1.510   2.210   1.993 -0.2594 -0.2375  0.6693
 1650WAT     H1 6662   1.552   2.126   1.974  0.1661 -0.4990  2.5610
 1650WAT     H2 6663   1.473   2.199   2.080 -1.5372  1.0623  0.3267
 1650WAT    EPW 6664   1.511   2.197   2.002 -0.3718 -0.1006  0.8736
 1651WAT      O 6665   1.290   2.956   1.503  0.5228 -0.0027 -0.1425
 1651WAT     H1 6666   1.200   2.985   1.487  0.3142 -0.5515 -0.0064
 1651WAT     H2 6667   1.331   2.955   1.417  0.5396  0.6990 -0.1459
 1651WAT    EPW 6668   1.284   2.959   1.490  0.4975  0.0174 -0.1250
 1652WAT      O 6669   0.058   4.029   1.039 -1.0101 -0.6485  0.1729
 1652WAT     H1 6670   0.057   4.125   1.037 -2.0249 -0.6273  0.7317
 1652WAT     H2 6671   0.039   4.007   1.130 -2.2183 -1.3770 -0.2366
 1652WAT    EPW 6672   0.055   4.039   1.051 -1.3033 -0.7417  0.1926
 1653WAT      O 6673   2.598   2.825   2.038  0.0978 -0.1014 -0.0147
 1653WAT     H1 6674   2.640   2.784   1.963  0.0910  2.2579 -1.4080
 1653WAT     H2 6675   2.594   2.756   2.105 -0.5356 -2.4991 -2.3770
 1653WAT    EPW 6676   2.603   2.810   2.037  0.0134 -0.1065 -0.5100
 1654WAT      O 6677   3.110   3.540   2.326 -0.6722  0.2140 -0.0940
 1654WAT     H1 6678   3.128   3.602   2.397  0.1324 -0.8016  0.6254
 1654WAT     H2 6679   3.168   3.568   2.255  0.4253 -0.2610  0.5725
 1654WAT    EPW 6680   3.120   3.552   2.326 -0.4214  0.0174  0.0887
 1655WAT      O 6681   0.321   1.949   3.519 -0.1967 -0.2493  0.8276
 1655WAT     H1 6682   0.244   1.908   3.559 -0.4833  0.2983  0.8439
 1655WAT     H2 6683   0.287   2.026   3.474  0.2618 -0.3296  0.3294
 1655WAT    EPW 6684   0.307   1.954   3.518 -0.1740 -0.1877  0.7640
 1656WAT      O 6685   1.606   1.379   0.402  0.3744 -0.9763  0.0221
 1656WAT     H1 6686   1.661   1.418   0.471 -0.1640  0.2872 -0.2334
 1656WAT     H2 6687   1.644   1.292   0.388  0.8437 -1.0506  1.5164
 1656WAT    EPW 6688   1.618   1.373   0.409  0.3653 -0.8195  0.1855
 1657WAT      O 6689   2.095   1.354   1.361  0.6048 -0.4120 -0.4362
 1657WAT     H1 6690   2.040   1.284   1.396  0.9907  0.7155  2.7274
 1657WAT     H2 6691   2.039   1.431   1.363  0.9118 -0.1412 -1.6565
 1657WAT    EPW 6692   2.080   1.355   1.366  0.6962 -0.2276 -0.1799
 1658WAT      O 6693   3.650   3.846   3.020 -0.0323  0.1248  0.6601
 1658WAT     H1 6694   3.691   3.871   3.103  1.3016  1.3053 -0.2936
 1658WAT     H2 6695   3.709   3.780   2.983  0.0023  0.4268  0.1559
 1658WAT    EPW 6696   3.663   3.840   3.026  0.1482  0.3203  0.4678
 1659WAT      O 6697   3.219   3.737   2.471  0.0120 -0.4127  0.1515
 1659WAT     H1 6698   3.297   3.760   2.421  0.7517  1.0293  1.8536
 1659WAT     H2 6699   3.208   3.809   2.532 -1.7366 -1.3688  1.0333
 1659WAT    EPW 6700   3.228   3.750   2.472 -0.1211 -0.3486  0.4923
 1660WAT      O 6701   0.112   1.492   1.825 -0.4035 -0.4755  0.3796
 1660WAT     H1 6702   0.129   1.554   1.895 -0.4380 -0.1282  0.0811
 1660WAT     H2 6703   0.031   1.448   1.851 -1.2747  0.7517 -0.2044
 1660WAT    EPW 6704   0.104   1.494   1.838 -0.5230 -0.2678  0.2632
 1661WAT      O 6705   3.141   1.797   0.880  0.3150  0.3710 -0.0297
 1661WAT     H1 6706   3.228   1.791   0.918  0.0847  1.6169  0.7441
 1661WAT     H2 6707   3.082   1.805   0.954 -0.5098 -0.6616 -0.5345
 1661WAT    EPW 6708   3.145   1.797   0.895  0.1759  0.3992  0.0058
 1662WAT      O 6709   2.022   0.146   3.171 -0.5205 -0.1515 -0.2295
 1662WAT     H1 6710   2.076   0.223   3.192  0.8777 -1.2768  0.4328
 1662WAT     H2 6711   2.073   0.098   3.107 -1.5277 -0.3999 -0.8573
 1662WAT    EPW 6712   2.036   0.150   3.165 -0.4689 -0.3327 -0.2249
 1663WAT      O 6713   0.291   4.230   2.677 -0.5852  0.2147 -0.5490
 1663WAT     H1 6714   0.245   4.146   2.679  1.5106 -1.0593 -2.1946
 1663WAT     H2 6715   0.295   4.257   2.769 -2.2371 -0.9207 -0.0928
 1663WAT    EPW 6716   0.285   4.222   2.690 -0.5267 -0.1031 -0.7059
 1664WAT      O 6717   0.887   0.254   3.172  0.3265 -0.8355  0.1717
 1664WAT     H1 6718   0.909   0.164   3.146  2.4619  0.0868 -1.4835
 1664WAT     H2 6719   0.893   0.304   3.092 -1.5486  0.7261  0.9339
 1664WAT    EPW 6720   0.891   0.249   3.158  0.3608 -0.5079  0.0539
 1665WAT      O 6721   3.258   1.996   2.916  0.5725  0.4913  0.3882
 1665WAT     H1 6722   3.193   1.927   2.904 -0.1906  1.1979  0.3813
 1665WAT     H2 6723   3.341   1.949   2.922 -0.0578 -0.5355  1.7037
 1665WAT    EPW 6724   3.260   1.981   2.915  0.3887  0.4491  0.5608
 1666WAT      O 6725   1.488   3.241   0.893  0.4647 -0.6983 -0.2384
 1666WAT     H1 6726   1.422   3.214   0.829 -0.3250 -2.6415  1.2809
 1666WAT     H2 6727   1.442   3.299   0.953  1.3618  1.6396 -1.6844
 1666WAT    EPW 6728   1.473   3.245   0.893  0.4789 -0.6462 -0.2287
 1667WAT      O 6729   2.038   3.495   2.802 -0.1889  0.2074 -0.3421
 1667WAT     H1 6730   1.946   3.520   2.807  0.1304  1.3567  0.1322
 1667WAT     H2 6731   2.049   3.428   2.869 -0.4902  0.7135  0.2249
 1667WAT    EPW 6732   2.028   3.489   2.811 -0.1865  0.4257 -0.2048
 1668WAT      O 6733   3.633   0.557   3.302  0.0967 -0.1665  0.2308
 1668WAT     H1 6734   3.706   0.515   3.346 -0.9663 -1.3143  0.9858
 1668WAT     H2 6735   3.586   0.603   3.372 -0.1544  0.1795 -0.1571
 1668WAT    EPW 6736   3.636   0.558   3.317 -0.0766 -0.2723  0.2792
 1669WAT      O 6737   2.375   3.892   0.165 -0.7908  0.1903  0.0208
 1669WAT     H1 6738   2.324   3.869   0.087 -1.3211 -0.2680  0.4866
 1669WAT     H2 6739   2.444   3.826   0.169 -0.2461  0.7118 -0.5173
 1669WAT    EPW 6740   2.377   3.881   0.155 -0.7889  0.1986  0.0112
 1670WAT      O 6741   1.204   1.726   2.678  0.0659 -0.3935  0.2110
 1670WAT     H1 6742   1.257   1.660   2.632  0.1349 -0.0867 -0.1553
 1670WAT     H2 6743   1.269   1.789   2.710 -0.1862  0.9645 -1.8038
 1670WAT    EPW 6744   1.220   1.726   2.676  0.0418 -0.1739 -0.1031
 1671WAT      O 6745   2.674   1.637   3.876  0.2172  0.2845 -0.2179
 1671WAT     H1 6746   2.596   1.636   3.931  0.4099 -0.4053  0.0434
 1671WAT     H2 6747   2.651   1.582   3.801  0.4226  0.1477 -0.1811
 1671WAT    EPW 6748   2.661   1.630   3.873  0.2697  0.1755 -0.1786
 1672WAT      O 6749   1.681   3.442   3.045  0.0941  0.5145  0.6695
 1672WAT     H1 6750   1.670   3.469   3.137  0.4010  0.9606  0.5791
 1672WAT     H2 6751   1.597   3.402   3.022  0.2307 -0.1917  1.3362
 1672WAT    EPW 6752   1.668   3.440   3.054  0.1526  0.4802  0.7455
 1673WAT      O 6753   3.160   1.606   2.131  0.0123  0.6783  0.1946
 1673WAT     H1 6754   3.177   1.699   2.120  2.6221  0.1362 -1.4083
 1673WAT     H2 6755   3.089   1.587   2.069  0.9474  1.2566 -1.0905
 1673WAT    EPW 6756   3.153   1.616   2.121  0.4798  0.6831 -0.1863
 1674WAT      O 6757   0.058   2.807   1.094 -0.6307  0.0931 -0.2723
 1674WAT     H1 6758   0.138   2.831   1.048  0.6625 -2.4935  0.4146
 1674WAT     H2 6759  -0.003   2.780   1.025  0.2665 -0.9812 -0.6742
 1674WAT    EPW 6760   0.060   2.807   1.079 -0.3418 -0.3898 -0.2347
 1675WAT      O 6761   2.957   3.362   2.567  0.4565 -0.1050  0.3643
 1675WAT     H1 6762   3.042   3.385   2.605  0.3600  1.4885 -0.2777
 1675WAT     H2 6763   2.894   3.379   2.637  0.6232 -0.9633  0.7318
 1675WAT    EPW 6764   2.960   3.367   2.581  0.4658 -0.0081  0.3281
 1676WAT      O 6765   0.156   2.492   0.901  0.2652  0.2011  0.4206
 1676WAT     H1 6766   0.093   2.563   0.897  1.8229  1.5840 -0.6096
 1676WAT     H2 6767   0.204   2.508   0.983 -0.6093 -0.8133  1.1710
 1676WAT    EPW 6768   0.154   2.503   0.911  0.3553  0.2497  0.3837
 1677WAT      O 6769   0.115   2.169   3.774  0.2188  0.2201  0.3390
 1677WAT     H1 6770   0.184   2.225   3.808  0.0110 -0.2402  1.5880
 1677WAT     H2 6771   0.130   2.084   3.815 -1.2358  0.1851  0.8809
 1677WAT    EPW 6772   0.126   2.165   3.784 -0.0004  0.1548  0.5752
 1678WAT      O 6773   1.244   2.025   0.368 -0.0777 -0.4143 -0.0974
 1678WAT     H1 6774   1.280   1.944   0.333  0.5539  0.1636 -0.8175
 1678WAT     H2 6775   1.255   2.017   0.463  3.4848  0.3590 -0.2823
 1678WAT    EPW 6776   1.250   2.013   0.376  0.4755 -0.2361 -0.2167
 1679WAT      O 6777   2.293   4.216   0.071  0.1333  0.2848 -0.1987
 1679WAT     H1 6778   2.228   4.284   0.053  0.8509  0.8241 -0.7796
 1679WAT     H2 6779   2.252   4.162   0.139 -0.6126  1.0550 -0.0150
 1679WAT    EPW 6780   2.279   4.218   0.078  0.1296  0.4575 -0.2511
 1680WAT      O 6781   1.478   2.397   0.702  0.5061 -0.6978 -0.2808
 1680WAT     H1 6782   1.516   2.437   0.624  0.1173  1.5235  0.6075
 1680WAT     H2 6783   1.516   2.309   0.704  2.2609 -0.0422 -1.7332
 1680WAT    EPW 6784   1.488   2.391   0.692  0.6863 -0.3184 -0.3552
 1681WAT      O 6785   1.871   1.748   3.233  0.3714  0.0388 -0.1595
 1681WAT     H1 6786   1.909   1.749   3.145  0.3950  0.1961 -0.1462
 1681WAT     H2 6787   1.783   1.782   3.221  0.5436  0.5310 -0.0400
 1681WAT    EPW 6788   1.864   1.752   3.220  0.3972  0.1244 -0.1420
 1682WAT      O 6789   3.385   2.111   0.003 -0.2592 -0.2024 -0.3379
 1682WAT     H1 6790   3.447   2.087   0.073 -0.0291  0.7835 -0.1977
 1682WAT     H2 6791   3.431   2.089  -0.078  0.0367 -0.0360 -0.2180
 1682WAT    EPW 6792   3.399   2.105   0.002 -0.1898 -0.0504 -0.3036
 1683WAT      O 6793   3.073   2.374   1.417  0.5823  0.3043 -0.4498
 1683WAT     H1 6794   3.139   2.328   1.469 -0.9055 -0.3075  0.9592
 1683WAT     H2 6795   3.030   2.433   1.479 -0.4926  0.3831 -1.2419
 1683WAT    EPW 6796   3.076   2.376   1.432  0.2443  0.2340 -0.3684
 1684WAT      O 6797   3.643   2.733   0.819 -0.0542  0.7402 -0.0185
 1684WAT     H1 6798   3.598   2.648   0.816  3.1007 -1.0288 -1.1828
 1684WAT     H2 6799   3.662   2.753   0.727  2.0033  1.0728  0.4426
 1684WAT    EPW 6800   3.639   2.724   0.806  0.6333  0.5507 -0.1112
 1685WAT      O 6801   3.472   4.024   1.024 -0.0214  0.1544  0.7225
 1685WAT     H1 6802   3.558   4.064   1.015 -0.5280  0.8744 -1.5560
 1685WAT     H2 6803   3.432   4.068   1.099  0.7908  1.3847  0.4522
 1685WAT    EPW 6804   3.478   4.035   1.033  0.0189  0.4116  0.3863
 1686WAT      O 6805   2.345   4.268   3.554  0.1143  0.2337  0.1305
 1686WAT     H1 6806   2.343   4.274   3.650 -1.1735  0.7468  0.0849
 1686WAT     H2 6807   2.435   4.240   3.534  0.2867 -0.2681  1.4987
 1686WAT    EPW 6808   2.357   4.265   3.564 -0.0328  0.2352  0.3050
 1687WAT      O 6809   2.993   3.516   1.515  0.0394  0.7297  0.3443
 1687WAT     H1 6810   2.915   3.461   1.525  0.9715 -0.4813  1.2965
 1687WAT     H2 6811   2.959   3.606   1.517 -1.4296  0.2216 -0.3823
 1687WAT    EPW 6812   2.978   3.521   1.517 -0.0314  0.5030  0.3740
 1688WAT      O 6813   1.273   1.954   1.300 -0.4269 -0.8143 -0.8871
 1688WAT     H1 6814   1.241   1.877   1.253  0.2427 -0.9528 -1.1360
 1688WAT     H2 6815   1.311   2.010   1.232 -0.0387 -0.7166 -0.5969
 1688WAT    EPW 6816   1.274   1.951   1.285 -0.2874 -0.8197 -0.8817
 1689WAT      O 6817   0.142   3.879   0.654  0.1413  0.2856 -0.1642
 1689WAT     H1 6818   0.132   3.839   0.740 -2.5821  0.4127 -0.3176
 1689WAT     H2 6819   0.114   3.810   0.593  1.3111  0.4447 -0.9059
 1689WAT    EPW 6820   0.137   3.864   0.657 -0.0636  0.3233 -0.2823
 1690WAT      O 6821   0.307   0.381   1.473  0.0947 -0.4673 -0.0550
 1690WAT     H1 6822   0.280   0.382   1.381  1.8003  0.1552 -0.5847
 1690WAT     H2 6823   0.384   0.438   1.476  0.0856 -0.4865  1.7689
 1690WAT    EPW 6824   0.313   0.389   1.461  0.3184 -0.3877  0.1157
 1691WAT      O 6825   1.843   0.530   0.702  0.3559  0.7756 -0.3274
 1691WAT     H1 6826   1.823   0.505   0.792  0.2941  0.5313 -0.4053
 1691WAT     H2 6827   1.904   0.463   0.672 -1.0467 -0.2450 -1.0562
 1691WAT    EPW 6828   1.848   0.518   0.710  0.1627  0.6088 -0.4338
 1692WAT      O 6829   2.775   3.897   3.466  0.7297 -0.4411  0.6783
 1692WAT     H1 6830   2.770   3.863   3.376 -0.9379 -1.2253  1.0310
 1692WAT     H2 6831   2.859   3.865   3.498  0.9757 -0.8749 -0.3280
 1692WAT    EPW 6832   2.786   3.888   3.458  0.5422 -0.6018  0.5921
 1693WAT      O 6833   1.320   1.225   0.458  0.3431 -0.2852  0.9893
 1693WAT     H1 6834   1.401   1.268   0.485  0.5714 -1.6748  2.7527
 1693WAT     H2 6835   1.258   1.297   0.446  1.3188  0.6898  1.5662
 1693WAT    EPW 6836   1.322   1.241   0.460  0.5019 -0.3399  1.2980
 1694WAT      O 6837   3.268   3.033   3.596 -0.0001 -0.2796 -0.1223
 1694WAT     H1 6838   3.270   3.110   3.540 -1.3480  0.8313  1.2452
 1694WAT     H2 6839   3.179   3.000   3.587  0.8001 -2.2446 -1.3531
 1694WAT    EPW 6840   3.256   3.039   3.587 -0.0723 -0.3922 -0.1043
 1695WAT      O 6841   1.483   0.911   0.294  0.2736  0.0046 -0.1949
 1695WAT     H1 6842   1.406   0.952   0.253  0.9781  0.1037 -1.4919
 1695WAT     H2 6843   1.514   0.849   0.228  2.3032  1.1886 -0.4531
 1695WAT    EPW 6844   1.477   0.908   0.280  0.6342  0.1739 -0.4000
 1696WAT      O 6845   3.533   1.246   3.039  0.1675  0.1185 -1.0179
 1696WAT     H1 6846   3.487   1.307   2.981  0.7558 -0.4601 -2.1317
 1696WAT     H2 6847   3.497   1.263   3.126 -0.2524  1.4856 -1.4391
 1696WAT    EPW 6848   3.523   1.256   3.043  0.1897  0.2225 -1.2204
 1697WAT      O 6849   2.695   1.351   2.750  0.0385  0.2340  0.1923
 1697WAT     H1 6850   2.733   1.316   2.669  0.0985  0.3133  0.1867
 1697WAT     H2 6851   2.601   1.336   2.740  0.0567  0.1365  0.1589
 1697WAT    EPW 6852   2.688   1.344   2.738  0.0488  0.2316  0.1871
 1698WAT      O 6853   0.554   3.738   0.440  0.2929  0.0818 -0.4366
 1698WAT     H1 6854   0.607   3.673   0.395 -2.1633 -0.1823 -3.2889
 1698WAT     H2 6855   0.470   3.694   0.456  0.8303  0.3038  4.3253
 1698WAT    EPW 6856   0.550   3.724   0.436  0.0398  0.0763 -0.1847
 1699WAT      O 6857   0.922   1.220   3.553  0.2415 -0.4652 -0.1225
 1699WAT     H1 6858   0.947   1.310   3.533  0.2336 -0.8779 -2.1772
 1699WAT     H2 6859   0.878   1.226   3.638 -0.9230  1.6669 -0.8094
 1699WAT    EPW 6860   0.920   1.233   3.562  0.0869 -0.2384 -0.4841
 1700WAT      O 6861   0.302   1.560   1.643  0.1067  0.2105 -0.0900
 1700WAT     H1 6862   0.225   1.534   1.693 -0.1580  1.6469  0.3182
 1700WAT     H2 6863   0.371   1.500   1.671 -0.4356  0.0133  0.8540
 1700WAT    EPW 6864   0.301   1.549   1.653  0.0003  0.3739  0.0884
 1701WAT      O 6865   0.405   2.587   2.729 -0.1924  0.4172 -0.1844
 1701WAT     H1 6866   0.397   2.495   2.755 -1.6485  0.4068 -0.5634
 1701WAT     H2 6867   0.459   2.626   2.798  2.5911 -1.1974 -1.2994
 1701WAT    EPW 6868   0.411   2.580   2.742 -0.0173  0.2029 -0.3815
 1702WAT      O 6869   2.498   3.323   0.056 -0.4818  0.2678  0.5122
 1702WAT     H1 6870   2.459   3.407   0.033  3.1174  1.3449 -2.9447
 1702WAT     H2 6871   2.550   3.341   0.135  0.4870  1.4823 -0.3612
 1702WAT    EPW 6872   2.500   3.336   0.063  0.1207  0.5701 -0.0589
 1703WAT      O 6873   1.537   2.297   3.075 -0.1168  0.1960 -0.0292
 1703WAT     H1 6874   1.486   2.377   3.091  0.8152  0.6168  0.9563
 1703WAT     H2 6875   1.628   2.326   3.079  0.2852 -1.1575  1.9872
 1703WAT    EPW 6876   1.542   2.312   3.078  0.0592  0.0730  0.3667
 1704WAT      O 6877   1.956   3.458   3.589 -0.1243 -0.0401  0.0743
 1704WAT     H1 6878   1.979   3.487   3.501  1.8455 -0.9389  0.2242
 1704WAT     H2 6879   1.992   3.526   3.647 -4.2729  2.3512  0.2538
 1704WAT    EPW 6880   1.964   3.471   3.585 -0.4117  0.1567  0.1177
 1705WAT      O 6881   3.469   3.984   2.083  0.5290 -0.2214 -0.2382
 1705WAT     H1 6882   3.508   4.040   2.016  0.9375 -0.8239 -0.5194
 1705WAT     H2 6883   3.537   3.919   2.102 -0.1713 -1.0358 -0.4272
 1705WAT    EPW 6884   3.484   3.983   2.077  0.4905 -0.4083 -0.3002
 1706WAT      O 6885   2.078   0.189   2.293 -0.0765 -0.0513 -0.8666
 1706WAT     H1 6886   2.043   0.157   2.210  0.8025 -1.9707 -0.5825
 1706WAT     H2 6887   2.002   0.207   2.347 -0.6542 -0.6994 -1.4463
 1706WAT    EPW 6888   2.064   0.187   2.290 -0.0367 -0.3899 -0.9056
 1707WAT      O 6889   1.250   3.416   3.512 -0.2495 -0.4644  0.0715
 1707WAT     H1 6890   1.340   3.428   3.482 -0.1563  0.4398  0.6853
 1707WAT     H2 6891   1.213   3.504   3.515 -0.9526 -0.7626  0.4414
 1707WAT    EPW 6892   1.257   3.429   3.509 -0.3299 -0.3844  0.2012
 1708WAT      O 6893   1.164   2.304   0.744  0.7033 -0.2043 -0.3909
 1708WAT     H1 6894   1.156   2.349   0.828  0.8899 -0.1130 -0.4204
 1708WAT     H2 6895   1.111   2.357   0.684  0.6469 -0.2149 -0.3498
 1708WAT    EPW 6896   1.156   2.317   0.747  0.7205 -0.1937 -0.3894
 1709WAT      O 6897   2.714   0.848   3.167  0.3343 -0.6172 -0.2705
 1709WAT     H1 6898   2.698   0.878   3.257 -0.1103 -2.1761  0.2095
 1709WAT     H2 6899   2.640   0.882   3.117  0.4283  0.0126  0.0052
 1709WAT    EPW 6900   2.702   0.856   3.172  0.2881 -0.7397 -0.1708
 1710WAT      O 6901   1.200   2.928   3.980  0.2000  0.1390  0.5754
 1710WAT     H1 6902   1.278   2.910   3.927 -1.0075 -1.4143 -0.7893
 1710WAT     H2 6903   1.160   3.005   3.939 -0.2692 -0.5438 -0.2852
 1710WAT    EPW 6904   1.205   2.936   3.967 -0.0211 -0.1559  0.2819
 1711WAT      O 6905   2.690   3.301   2.349 -0.4757  0.0735  0.2869
 1711WAT     H1 6906   2.597   3.317   2.335 -0.7136 -0.5762  1.0337
 1711WAT     H2 6907   2.696   3.206   2.361  0.3152  0.0852  0.0311
 1711WAT    EPW 6908   2.679   3.290   2.349 -0.4028 -0.0107  0.3516
 1712WAT      O 6909   1.657   3.652   2.239 -0.1384  0.0547  0.6420
 1712WAT     H1 6910   1.578   3.621   2.195 -0.4970 -1.1666  2.0836
 1712WAT     H2 6911   1.702   3.704   2.173 -0.3465 -2.1713 -1.3771
 1712WAT    EPW 6912   1.653   3.655   2.225 -0.2131 -0.4000  0.5659
 1713WAT      O 6913   0.130   1.752   2.335 -0.1975 -0.3551  0.9811
 1713WAT     H1 6914   0.044   1.718   2.312 -0.7937  1.3027  0.6445
 1713WAT     H2 6915   0.113   1.837   2.375  1.2507 -0.2755  1.4953
 1713WAT    EPW 6916   0.117   1.759   2.337 -0.0852 -0.1260  1.0045
 1714WAT      O 6917   2.392   3.818   2.387  0.4324  0.3732 -0.3467
 1714WAT     H1 6918   2.306   3.790   2.355  0.9380 -0.7751 -0.7645
 1714WAT     H2 6919   2.420   3.885   2.324 -0.1766  0.8039 -0.1705
 1714WAT    EPW 6920   2.384   3.823   2.374  0.4188  0.2786 -0.3786
 1715WAT      O 6921   2.191   3.276   0.562 -0.4917  0.2409  0.4856
 1715WAT     H1 6922   2.136   3.314   0.493 -1.4618 -0.7250  0.7063
 1715WAT     H2 6923   2.278   3.313   0.545 -0.5705 -0.3847 -1.5962
 1715WAT    EPW 6924   2.195   3.286   0.551 -0.6301  0.0310  0.2401
 1716WAT      O 6925   1.740   1.603   0.049 -0.0885 -0.0355  0.1470
 1716WAT     H1 6926   1.709   1.548  -0.022 -0.1947 -0.5907  0.6180
 1716WAT     H2 6927   1.691   1.685   0.038  0.0732 -0.0305 -0.5525
 1716WAT    EPW 6928   1.729   1.607   0.039 -0.0812 -0.1081  0.1169
 1717WAT      O 6929   0.415   2.842   2.215 -0.0742 -0.3843 -0.3092
 1717WAT     H1 6930   0.498   2.869   2.254 -1.3888  0.7178  1.9383
 1717WAT     H2 6931   0.437   2.763   2.165  2.2019 -0.4880  0.7104
 1717WAT    EPW 6932   0.429   2.835   2.214  0.0526 -0.2526  0.1217
 1718WAT      O 6933   0.941   2.971   2.876  0.3407 -0.3319  0.1677
 1718WAT     H1 6934   0.961   2.928   2.959 -2.5265 -1.4829  0.3720
 1718WAT     H2 6935   1.008   3.039   2.868  1.7187 -1.2778  2.5575
 1718WAT    EPW 6936   0.953   2.974   2.886  0.1443 -0.6085  0.5099
 1719WAT      O 6937   2.606   1.649   2.868 -0.0503 -0.5911 -0.4375
 1719WAT     H1 6938   2.526   1.610   2.835 -0.7104 -1.4395  1.9307
 1719WAT     H2 6939   2.638   1.587   2.933  3.4095 -1.0033 -2.2999
 1719WAT    EPW 6940   2.600   1.636   2.872  0.3190 -0.7574 -0.3708
 1720WAT      O 6941   1.460   2.077   2.239  0.0154  0.0498 -0.0253
 1720WAT     H1 6942   1.543   2.119   2.265  0.3453 -0.4078 -0.3215
 1720WAT     H2 6943   1.455   1.999   2.294 -0.0133 -0.1441 -0.3031
 1720WAT    EPW 6944   1.471   2.072   2.250  0.0551 -0.0361 -0.1010
 1721WAT      O 6945   1.731   0.397   0.472 -0.1538 -0.0385 -0.3174
 1721WAT     H1 6946   1.692   0.336   0.535  0.6659 -0.4095 -0.1663
 1721WAT     H2 6947   1.756   0.473   0.525  1.0035 -0.5596 -0.0917
 1721WAT    EPW 6948   1.729   0.399   0.487  0.1069 -0.1562 -0.2677
 1722WAT      O 6949   1.688   1.718   2.622  0.3675 -0.5832 -0.7516
 1722WAT     H1 6950   1.614   1.760   2.665  0.1260 -1.6298 -0.0958
 1722WAT     H2 6951   1.668   1.624   2.628  1.1253 -0.8191 -1.7127
 1722WAT    EPW 6952   1.675   1.711   2.629  0.4356 -0.7524 -0.7919
 1723WAT      O 6953   1.320   4.097   2.996 -0.0121 -0.2121  0.6392
 1723WAT     H1 6954   1.301   4.188   3.020  1.3012 -0.4196  2.6698
 1723WAT     H2 6955   1.408   4.081   3.029  0.5990 -1.6541 -1.4529
 1723WAT    EPW 6956   1.329   4.107   3.003  0.2417 -0.4297  0.6311
 1724WAT      O 6957   2.359   2.648   0.515 -0.3739 -0.0800  0.3538
 1724WAT     H1 6958   2.271   2.675   0.486 -1.0126 -0.2060  2.0437
 1724WAT     H2 6959   2.344   2.568   0.564  0.5095  0.5795  1.7558
 1724WAT    EPW 6960   2.345   2.641   0.518 -0.3416 -0.0096  0.7616
 1725WAT      O 6961   3.537   0.621   1.891 -0.1599  0.2397  0.6748
 1725WAT     H1 6962   3.505   0.531   1.879  1.8987 -0.2580 -1.9560
 1725WAT     H2 6963   3.599   0.615   1.964 -1.1093 -0.1113  1.4865
 1725WAT    EPW 6964   3.541   0.609   1.899 -0.0136  0.1277  0.4349
 1726WAT      O 6965   2.228   1.015   1.056  0.1729 -0.1183  0.2514
 1726WAT     H1 6966   2.221   1.008   1.152 -1.1773  2.3416  0.3933
 1726WAT     H2 6967   2.234   1.108   1.039 -0.9723 -0.4210 -2.1541
 1726WAT    EPW 6968   2.228   1.026   1.067 -0.1562  0.1662 -0.0471
 1727WAT      O 6969   1.477   4.214   2.322 -0.2601  0.5860  0.7386
 1727WAT     H1 6970   1.402   4.270   2.303 -1.4307 -0.8747  0.7761
 1727WAT     H2 6971   1.491   4.223   2.416 -1.5090 -0.3676  1.0528
 1727WAT    EPW 6972   1.469   4.222   2.332 -0.5792  0.2675  0.7850
 1728WAT      O 6973   0.362   3.651   3.406  0.4641 -0.6027 -0.3478
 1728WAT     H1 6974   0.389   3.570   3.364  3.4355  0.1765 -0.1784
 1728WAT     H2 6975   0.419   3.718   3.368 -0.1370  0.9617  1.3369
 1728WAT    EPW 6976   0.373   3.649   3.396  0.7767 -0.2936 -0.1033
 1729WAT      O 6977   2.998   0.829   1.476 -0.3163 -0.0482 -0.4291
 1729WAT     H1 6978   3.093   0.842   1.476  0.0885 -2.4494 -1.1276
 1729WAT     H2 6979   2.971   0.842   1.386 -0.3059 -1.2025 -0.6184
 1729WAT    EPW 6980   3.007   0.832   1.464 -0.2616 -0.5172 -0.5462
 1730WAT      O 6981   0.487   0.474   1.821  0.2096  0.7050  0.3427
 1730WAT     H1 6982   0.414   0.476   1.882 -0.7910  1.5910 -0.8390
 1730WAT     H2 6983   0.554   0.529   1.862 -0.6484  1.7259  0.4099
 1730WAT    EPW 6984   0.486   0.482   1.834 -0.0356  0.9565  0.1957
 1731WAT      O 6985   1.193   0.180   3.439  0.0309  0.3618  0.0012
 1731WAT     H1 6986   1.268   0.194   3.382  0.2998  0.6050  0.4102
 1731WAT     H2 6987   1.169   0.088   3.426 -0.0174  0.4644 -0.6306
 1731WAT    EPW 6988   1.200   0.170   3.430  0.0600  0.4074 -0.0282
 1732WAT      O 6989   1.405   0.788   0.530  0.3644 -0.0672 -0.4922
 1732WAT     H1 6990   1.446   0.797   0.443 -0.2158  1.1718 -0.6612
 1732WAT     H2 6991   1.312   0.805   0.514  0.1485 -0.5104  0.2744
 1732WAT    EPW 6992   1.398   0.792   0.516  0.2594  0.0378 -0.4134
 1733WAT      O 6993   0.212   1.715   1.411  0.1194  0.4044 -0.5129
 1733WAT     H1 6994   0.284   1.778   1.413  1.4350 -1.0022 -1.1145
 1733WAT     H2 6995   0.224   1.663   1.490 -0.1488  0.0665 -0.6933
 1733WAT    EPW 6996   0.223   1.717   1.422  0.2575  0.1743 -0.6161
 1734WAT      O 6997   2.273   2.420   1.775  0.3191  0.2405  0.4605
 1734WAT     H1 6998   2.238   2.363   1.844 -0.8173 -0.1750 -0.4304
 1734WAT     H2 6999   2.255   2.373   1.694  1.8329  0.6221 -0.1200
 1734WAT    EPW 7000   2.266   2.406   1.773  0.3689  0.2361  0.2665
 1735WAT      O 7001   2.264   4.103   2.545  0.5299 -0.3221  0.6976
 1735WAT     H1 7002   2.248   4.010   2.561  1.2263 -0.5029  0.3970
 1735WAT     H2 7003   2.358   4.108   2.525 -0.0509 -0.0542 -2.5538
 1735WAT    EPW 7004   2.274   4.092   2.544  0.5451 -0.3106  0.2291
 1736WAT      O 7005   1.889   3.999   3.967  0.5013 -0.0862 -0.1965
 1736WAT     H1 7006   1.803   3.968   3.939  0.8941 -0.1488 -1.4215
 1736WAT     H2 7007   1.874   4.087   4.000 -0.6660 -1.4750  3.4587
 1736WAT    EPW 7008   1.876   4.007   3.967  0.3992 -0.2776  0.1240
 1737WAT      O 7009   2.834   2.840   0.811  0.2261 -0.2193 -0.2177
 1737WAT     H1 7010   2.781   2.831   0.732 -0.3168 -0.4718  0.1648
 1737WAT     H2 7011   2.774   2.818   0.883  0.3728  1.1925  0.3659
 1737WAT    EPW 7012   2.820   2.836   0.810  0.1738 -0.0664 -0.0903
 1738WAT      O 7013   2.812   2.092   3.812 -0.1434 -0.1003 -0.4150
 1738WAT     H1 7014   2.892   2.144   3.820 -0.2546 -0.0437  0.4118
 1738WAT     H2 7015   2.792   2.093   3.718  0.2119  0.8030 -0.4926
 1738WAT    EPW 7016   2.820   2.099   3.801 -0.1112  0.0263 -0.3162
 1739WAT      O 7017   1.259   3.051   1.924 -0.0032 -0.6521 -0.2756
 1739WAT     H1 7018   1.301   2.991   1.862  0.5494  1.9809 -2.6492
 1739WAT     H2 7019   1.168   3.054   1.896 -0.0971 -0.6030  0.0319
 1739WAT    EPW 7020   1.253   3.044   1.912  0.0573 -0.2983 -0.5481
 1740WAT      O 7021   1.538   2.012   0.313 -0.1108  0.3004  0.4744
 1740WAT     H1 7022   1.456   2.060   0.316  0.2651  1.0160 -0.3670
 1740WAT     H2 7023   1.548   1.976   0.402 -2.2289 -1.3871  0.0946
 1740WAT    EPW 7024   1.529   2.013   0.325 -0.3406  0.1722  0.3133
 1741WAT      O 7025   2.020   3.231   1.683  0.5038  0.5336  0.3828
 1741WAT     H1 7026   2.066   3.273   1.611  0.3083 -1.3459 -0.8993
 1741WAT     H2 7027   1.939   3.281   1.692 -0.2795 -0.2036 -1.8971
 1741WAT    EPW 7028   2.015   3.243   1.675  0.3747  0.1885 -0.0870
 1742WAT      O 7029   0.438   1.144   0.332  0.4768 -0.2775  0.1173
 1742WAT     H1 7030   0.371   1.196   0.379  0.1235  0.8391 -1.5334
 1742WAT     H2 7031   0.440   1.061   0.379 -2.3057 -0.4720  0.0727
 1742WAT    EPW 7032   0.429   1.140   0.344  0.0632 -0.1559 -0.1063
 1743WAT      O 7033   1.241   0.333   3.058  0.0969  1.1431 -0.2925
 1743WAT     H1 7034   1.226   0.247   3.097  0.9239  0.7052 -0.9080
 1743WAT     H2 7035   1.184   0.336   2.981 -0.3765  1.3922  0.0610
 1743WAT    EPW 7036   1.232   0.322   3.053  0.1435  1.1182 -0.3271
 1744WAT      O 7037   2.056   2.355   0.918  0.0173 -0.2123 -0.2278
 1744WAT     H1 7038   2.088   2.419   0.854  1.2492 -0.8566 -0.2870
 1744WAT     H2 7039   1.991   2.403   0.969 -0.7171  0.4318 -1.7019
 1744WAT    EPW 7040   2.052   2.370   0.917  0.0830 -0.2123 -0.4300
 1745WAT      O 7041   2.816   4.227   2.435 -0.2161 -0.6323  0.3505
 1745WAT     H1 7042   2.773   4.294   2.487  0.4058  1.0134 -1.1589
 1745WAT     H2 7043   2.780   4.237   2.347  1.4432 -0.7947 -0.4026
 1745WAT    EPW 7044   2.806   4.237   2.430  0.0848 -0.4367  0.0521
 1746WAT      O 7045   0.376   3.624   3.053  0.5662 -0.1564 -0.0039
 1746WAT     H1 7046   0.314   3.595   2.986 -0.6683 -0.1773  1.1081
 1746WAT     H2 7047   0.340   3.707   3.085  1.8559  0.5324 -0.2728
 1746WAT    EPW 7048   0.363   3.631   3.049  0.5735 -0.0683  0.1073
 1747WAT      O 7049   2.715   1.806   2.250 -0.4046 -0.1903  0.3900
 1747WAT     H1 7050   2.663   1.877   2.286 -0.1426  0.3394 -0.2588
 1747WAT     H2 7051   2.803   1.842   2.241 -0.5036 -0.2235 -0.9763
 1747WAT    EPW 7052   2.720   1.820   2.253 -0.3831 -0.1248  0.1242
 1748WAT      O 7053   1.892   1.356   3.417 -0.7617  0.3707  0.4102
 1748WAT     H1 7054   1.927   1.268   3.427  0.0881  0.2450 -2.6066
 1748WAT     H2 7055   1.967   1.409   3.391 -1.6348  1.5056  0.1154
 1748WAT    EPW 7056   1.906   1.351   3.415 -0.7648  0.5038 -0.0266
 1749WAT      O 7057   1.805   3.616   0.398 -0.2075  0.5965  0.2720
 1749WAT     H1 7058   1.885   3.569   0.423 -0.0290  0.6700 -0.1557
 1749WAT     H2 7059   1.741   3.547   0.378  0.4149  0.4946 -1.5479
 1749WAT    EPW 7060   1.807   3.601   0.399 -0.1019  0.5928 -0.0245
 1750WAT      O 7061   3.472   2.269   3.002 -0.2104 -0.0532  0.4775
 1750WAT     H1 7062   3.382   2.295   3.020 -0.9960 -2.2236 -0.0706
 1750WAT     H2 7063   3.485   2.292   2.910 -0.6489 -0.8768  0.2018
 1750WAT    EPW 7064   3.462   2.276   2.992 -0.3719 -0.4481  0.3688
 1751WAT      O 7065   0.795   3.746   1.473  0.1333  0.3327 -0.4654
 1751WAT     H1 7066   0.753   3.685   1.533  0.2384  0.8782  0.1747
 1751WAT     H2 7067   0.723   3.802   1.442 -0.0493 -0.4136 -1.4378
 1751WAT    EPW 7068   0.780   3.746   1.477  0.1231  0.3062 -0.5092
 1752WAT      O 7069   1.017   0.720   1.759 -0.9426  0.4552  0.1486
 1752WAT     H1 7070   0.955   0.792   1.747 -0.4589  0.8347 -0.0756
 1752WAT     H2 7071   1.009   0.698   1.852 -0.9060  0.9681  0.2749
 1752WAT    EPW 7072   1.008   0.727   1.770 -0.8740  0.5729  0.1357
 1753WAT      O 7073   3.363   3.019   2.598 -0.1618 -0.2446  0.1863
 1753WAT     H1 7074   3.403   3.061   2.675 -1.6314 -0.6633  1.2194
 1753WAT     H2 7075   3.435   3.010   2.536  0.5227  2.5023  0.4654
 1753WAT    EPW 7076   3.378   3.024   2.600 -0.2653  0.0625  0.3593
 1754WAT      O 7077   0.431   0.186   3.266 -0.0360  0.1050 -0.2134
 1754WAT     H1 7078   0.376   0.250   3.221 -0.2243 -0.3697 -0.6667
 1754WAT     H2 7079   0.469   0.133   3.195  1.3136  0.6621  0.0533
 1754WAT    EPW 7080   0.429   0.188   3.251  0.1171  0.1159 -0.2380
 1755WAT      O 7081   3.115   3.976   3.799  0.5406  0.6770  0.1275
 1755WAT     H1 7082   3.188   4.038   3.802  0.4109  0.8198  0.3703
 1755WAT     H2 7083   3.045   4.023   3.754  0.9212  0.1870 -1.0175
 1755WAT    EPW 7084   3.116   3.990   3.794  0.5737  0.6312  0.0085
 1756WAT      O 7085   0.845   1.402   0.262 -0.4690 -0.2772 -0.2135
 1756WAT     H1 7086   0.776   1.426   0.201 -0.3477 -0.4714 -0.4276
 1756WAT     H2 7087   0.886   1.325   0.223  1.1145  0.9406 -1.0879
 1756WAT    EPW 7088   0.842   1.395   0.249 -0.2442 -0.1422 -0.3570
 1757WAT      O 7089   3.500   2.811   3.541 -0.0740 -0.4238  0.0581
 1757WAT     H1 7090   3.429   2.829   3.480 -1.2987  0.0985  1.5540
 1757WAT     H2 7091   3.479   2.864   3.618  1.7810 -0.5059  0.6804
 1757WAT    EPW 7092   3.488   2.820   3.543  0.0092 -0.3657  0.3375
 1758WAT      O 7093   3.475   2.646   0.267 -0.1636  0.0005  0.0209
 1758WAT     H1 7094   3.402   2.662   0.327 -1.3424  1.4811 -1.6925
 1758WAT     H2 7095   3.434   2.639   0.181  1.4347 -2.3906 -0.6339
 1758WAT    EPW 7096   3.460   2.647   0.264 -0.1082 -0.1196 -0.2915
 1759WAT      O 7097   3.205   3.059   1.416  0.1851 -0.2450 -0.4752
 1759WAT     H1 7098   3.254   3.083   1.337  0.1677  0.1177 -0.3771
 1759WAT     H2 7099   3.231   3.124   1.481 -0.0783 -0.3250 -0.2884
 1759WAT    EPW 7100   3.215   3.071   1.414  0.1480 -0.2077 -0.4376
 1760WAT      O 7101   3.319   3.321   2.293  0.1226 -0.2793  0.1113
 1760WAT     H1 7102   3.364   3.406   2.296 -0.2369 -0.0912  2.2193
 1760WAT     H2 7103   3.226   3.343   2.286  0.0462 -0.5014  0.4142
 1760WAT    EPW 7104   3.313   3.335   2.293  0.0651 -0.2838  0.4293
 1761WAT      O 7105   3.639   2.297   1.644  0.0933  0.2161 -0.2425
 1761WAT     H1 7106   3.666   2.342   1.724  0.6279  1.2737 -0.9903
 1761WAT     H2 7107   3.646   2.204   1.665 -0.1275  0.4741  1.0466
 1761WAT    EPW 7108   3.644   2.291   1.657  0.1347  0.3896 -0.1711
 1762WAT      O 7109   3.684   0.619   1.432 -0.2325  0.4897  0.0346
 1762WAT     H1 7110   3.627   0.668   1.491 -0.3467  1.6699 -0.9957
 1762WAT     H2 7111   3.741   0.686   1.393 -0.6085 -0.1285 -1.6727
 1762WAT    EPW 7112   3.684   0.635   1.434 -0.2972  0.5638 -0.3265
 1763WAT      O 7113   0.160   3.148   0.523 -0.0308 -0.4573  1.3901
 1763WAT     H1 7114   0.069   3.152   0.496  0.5154  0.7699 -0.4791
 1763WAT     H2 7115   0.204   3.098   0.455  0.8801  0.0130  1.6038
 1763WAT    EPW 7116   0.154   3.142   0.511  0.1614 -0.2334  1.1717
 1764WAT      O 7117   1.045   1.581   1.446  0.3097 -0.5219  0.4481
 1764WAT     H1 7118   1.024   1.570   1.538 -0.0599 -0.9996  0.3133
 1764WAT     H2 7119   1.051   1.492   1.412  0.6310 -0.3540  0.0505
 1764WAT    EPW 7120   1.043   1.568   1.453  0.3033 -0.5628  0.3778
 1765WAT      O 7121   0.392   4.048   3.394  0.5133 -0.2325  0.0292
 1765WAT     H1 7122   0.365   4.139   3.380  0.3663 -0.0429  1.4222
 1765WAT     H2 7123   0.479   4.055   3.432  0.8430 -0.7169 -0.6145
 1765WAT    EPW 7124   0.400   4.061   3.397  0.5374 -0.2714  0.1280
 1766WAT      O 7125   3.391   0.331   2.820  0.2559  0.3009 -0.6436
 1766WAT     H1 7126   3.474   0.361   2.856  1.8157 -0.9806 -2.9106
 1766WAT     H2 7127   3.350   0.410   2.785  1.4812  0.6907 -1.2528
 1766WAT    EPW 7128   3.397   0.346   2.820  0.6232  0.1833 -1.0230
 1767WAT      O 7129   2.237   0.179   3.769 -0.3508  0.3332  0.2485
 1767WAT     H1 7130   2.198   0.222   3.845  0.3298  1.1250  0.1644
 1767WAT     H2 7131   2.162   0.144   3.721 -0.7635 -0.5443  1.4822
 1767WAT    EPW 7132   2.222   0.180   3.773 -0.3155  0.3219  0.4002
 1768WAT      O 7133   3.013   3.798   3.584 -0.5093  0.3998  0.0248
 1768WAT     H1 7134   3.014   3.843   3.669  0.0955  0.7758 -0.1788
 1768WAT     H2 7135   3.092   3.829   3.540  0.3167 -1.4063  0.1645
 1768WAT    EPW 7136   3.024   3.808   3.590 -0.3206  0.2112  0.0164
 1769WAT      O 7137   0.670   0.639   1.226 -0.0392 -0.0846 -0.3555
 1769WAT     H1 7138   0.621   0.715   1.257  0.4557 -0.6580  2.0244
 1769WAT     H2 7139   0.733   0.676   1.164 -0.1294  1.3959  0.3707
 1769WAT    EPW 7140   0.672   0.654   1.222  0.0142  0.0350  0.0541
 1770WAT      O 7141   0.290   3.885   3.166  0.0727  0.6102  0.5068
 1770WAT     H1 7142   0.209   3.858   3.209 -1.0058  0.2285 -1.6192
 1770WAT     H2 7143   0.328   3.950   3.225 -1.7021  0.7025  1.6295
 1770WAT    EPW 7144   0.285   3.890   3.180 -0.3036  0.5721  0.3745
 1771WAT      O 7145   1.985   3.066   0.965  0.3169  0.0759  0.3971
 1771WAT     H1 7146   2.077   3.042   0.969  0.4319  0.3530 -0.4981
 1771WAT     H2 7147   1.941   2.997   1.015  1.1478  0.8653  2.3368
 1771WAT    EPW 7148   1.991   3.053   0.972  0.4417  0.2166  0.5349
 1772WAT      O 7149   0.008   3.346   3.796  0.5395 -0.2220 -0.3114
 1772WAT     H1 7150   0.061   3.412   3.752 -0.2192 -0.4776 -1.6545
 1772WAT     H2 7151  -0.082   3.376   3.785  0.1480 -1.6285 -1.2710
 1772WAT    EPW 7152   0.003   3.358   3.789  0.3878 -0.4412 -0.6151
 1773WAT      O 7153   1.331   1.755   1.123 -0.0159  0.7654 -0.3686
 1773WAT     H1 7154   1.306   1.682   1.066 -1.2406 -0.2031  1.3230
 1773WAT     H2 7155   1.422   1.736   1.146 -0.5602 -0.7497  0.7152
 1773WAT    EPW 7156   1.340   1.743   1.118 -0.2492  0.4378 -0.0026
 1774WAT      O 7157   0.656   0.964   3.169 -0.5292 -0.2785 -0.5277
 1774WAT     H1 7158   0.735   1.018   3.173  0.4565 -1.5839 -1.2908
 1774WAT     H2 7159   0.667   0.913   3.088 -1.8393 -0.9552 -0.2934
 1774WAT    EPW 7160   0.668   0.964   3.159 -0.5720 -0.5399 -0.5975
 1775WAT      O 7161   2.203   2.807   3.569 -0.0723 -0.1105 -0.4744
 1775WAT     H1 7162   2.276   2.755   3.535 -0.7624 -1.6637  0.3051
 1775WAT     H2 7163   2.243   2.887   3.603  1.5103 -1.5723  1.2917
 1775WAT    EPW 7164   2.218   2.811   3.569  0.0454 -0.5082 -0.1387
 1776WAT      O 7165   0.465   3.841   1.020  0.1727 -0.6307  0.4173
 1776WAT     H1 7166   0.414   3.911   0.979 -0.1141 -1.2802 -0.3650
 1776WAT     H2 7167   0.453   3.854   1.114  2.4479  2.1190  0.4646
 1776WAT    EPW 7168   0.457   3.852   1.027  0.4350 -0.3537  0.3204
 1777WAT      O 7169   0.933   3.662   2.184  0.1048  0.3702 -0.0149
 1777WAT     H1 7170   0.995   3.685   2.254 -1.4013  0.5160  1.3277
 1777WAT     H2 7171   0.984   3.605   2.126  0.5721 -2.6590  3.0149
 1777WAT    EPW 7172   0.948   3.657   2.186 -0.0322 -0.0101  0.5618
 1778WAT      O 7173   0.065   2.018   1.360  0.0790 -0.7943 -0.0789
 1778WAT     H1 7174   0.003   1.951   1.333  1.3834 -1.2780 -2.0524
 1778WAT     H2 7175   0.090   1.994   1.449  0.9021 -3.2605 -0.9134
 1778WAT    EPW 7176   0.060   2.006   1.368  0.3596 -1.1834 -0.4493
 1779WAT      O 7177   2.118   3.045   2.854  0.3740 -0.1840 -0.4332
 1779WAT     H1 7178   2.076   3.059   2.939  0.6563  0.7532 -0.4376
 1779WAT     H2 7179   2.047   3.056   2.790  0.1867 -0.7711 -0.3386
 1779WAT    EPW 7180   2.103   3.048   2.857  0.3865 -0.1379 -0.4213
 1780WAT      O 7181   1.111   1.669   3.929  0.1143  0.3250 -0.0316
 1780WAT     H1 7182   1.079   1.619   4.003 -1.9632 -0.2390 -1.2301
 1780WAT     H2 7183   1.105   1.609   3.855  2.4285  0.7654 -0.6760
 1780WAT    EPW 7184   1.106   1.655   3.929  0.1455  0.3087 -0.2746
 1781WAT      O 7185   1.067   1.893   0.878  0.0413  0.1276  0.4037
 1781WAT     H1 7186   1.023   1.966   0.835  0.8550 -0.4060 -1.4734
 1781WAT     H2 7187   1.156   1.895   0.842  0.4387 -1.0232  1.2766
 1781WAT    EPW 7188   1.073   1.903   0.867  0.2010 -0.0946  0.2713
 1782WAT      O 7189   1.447   2.806   3.892  0.4999 -0.2047 -0.2605
 1782WAT     H1 7190   1.541   2.807   3.912 -0.0614 -0.4586  3.1098
 1782WAT     H2 7191   1.427   2.714   3.875  1.0007  0.0064 -2.1997
 1782WAT    EPW 7192   1.457   2.794   3.893  0.4919 -0.2103 -0.0718
 1783WAT      O 7193   1.736   0.705   1.045  0.0074 -0.0215 -0.0636
 1783WAT     H1 7194   1.796   0.778   1.059 -0.1857  0.2372 -0.5395
 1783WAT     H2 7195   1.687   0.730   0.966  1.1185 -1.4595 -1.2503
 1783WAT    EPW 7196   1.737   0.718   1.036  0.1285 -0.1770 -0.2829
 1784WAT      O 7197   3.041   1.450   1.760 -0.3193 -0.3522 -0.1543
 1784WAT     H1 7198   3.024   1.357   1.744 -0.7245 -0.2831 -0.1426
 1784WAT     H2 7199   3.125   1.467   1.718 -0.9963 -0.3440 -1.5752
 1784WAT    EPW 7200   3.050   1.440   1.752 -0.4620 -0.3420 -0.3401
 1785WAT      O 7201   1.328   1.461   1.394  0.1561  0.1788  0.0394
 1785WAT     H1 7202   1.363   1.458   1.305 -1.2813 -1.2146 -0.5185
 1785WAT     H2 7203   1.268   1.536   1.393 -0.0473  0.0135 -0.2395
 1785WAT    EPW 7204   1.324   1.471   1.382 -0.0603 -0.0268 -0.0710
 1786WAT      O 7205   1.675   2.273   1.384 -0.4541  0.3869 -0.4250
 1786WAT     H1 7206   1.748   2.248   1.440 -0.1023  0.1130 -0.9920
 1786WAT     H2 7207   1.695   2.362   1.355  0.3240 -0.1466 -1.6118
 1786WAT    EPW 7208   1.687   2.281   1.388 -0.3051  0.2804 -0.6563
 1787WAT      O 7209   2.257   4.213   1.420  0.3132 -0.2088 -0.0168
 1787WAT     H1 7210   2.188   4.164   1.464  0.7608  0.1175  1.0937
 1787WAT     H2 7211   2.307   4.146   1.373 -0.0799 -0.5890  0.0990
 1787WAT    EPW 7212   2.255   4.197   1.420  0.3204 -0.2159  0.1450
 1788WAT      O 7213   2.845   1.381   0.422 -0.0145 -0.2065  0.3970
 1788WAT     H1 7214   2.795   1.317   0.474  1.2603 -0.4423  1.3917
 1788WAT     H2 7215   2.930   1.384   0.465 -0.3618  3.0073  1.0888
 1788WAT    EPW 7216   2.849   1.373   0.435  0.1078  0.1863  0.6195
 1789WAT      O 7217   0.868   2.976   1.145  0.2897  0.3381  0.3051
 1789WAT     H1 7218   0.923   2.920   1.200  0.8147  0.0989 -0.4513
 1789WAT     H2 7219   0.820   2.915   1.089  2.8106  0.6347 -2.3971
 1789WAT    EPW 7220   0.869   2.961   1.145  0.6914  0.3457 -0.1511
 1790WAT      O 7221   3.003   3.649   3.860  0.5241 -0.2596 -0.8695
 1790WAT     H1 7222   2.936   3.622   3.798  0.4367 -0.7092 -0.5834
 1790WAT     H2 7223   3.082   3.602   3.833  0.8241  0.5411 -1.4218
 1790WAT    EPW 7224   3.005   3.640   3.848  0.5521 -0.2133 -0.9046
 1791WAT      O 7225   0.056   1.254   2.187  0.1852 -0.3592  0.2109
 1791WAT     H1 7226   0.082   1.180   2.132 -0.9301  0.1894 -1.1222
 1791WAT     H2 7227  -0.036   1.236   2.209  0.6953 -0.7055  2.1639
 1791WAT    EPW 7228   0.047   1.242   2.182  0.1054 -0.3325  0.2927
 1792WAT      O 7229   3.318   3.216   3.412 -0.6320  0.1421 -0.0062
 1792WAT     H1 7230   3.242   3.274   3.418 -0.5939  0.2899 -0.8376
 1792WAT     H2 7231   3.388   3.272   3.377 -0.2100 -0.0615  0.4910
 1792WAT    EPW 7232   3.317   3.231   3.409 -0.5713  0.1347 -0.0503
 1793WAT      O 7233   1.872   2.330   2.213  0.2827 -0.0898 -0.0254
 1793WAT     H1 7234   1.845   2.418   2.186 -0.6049 -0.2796  0.2372
 1793WAT     H2 7235   1.894   2.286   2.131 -1.9937 -0.5213 -0.4717
 1793WAT    EPW 7236   1.872   2.336   2.199 -0.1346 -0.1718 -0.0496
 1794WAT      O 7237   1.864   3.867   1.044 -0.6749  0.2118  1.1027
 1794WAT     H1 7238   1.921   3.810   0.992 -0.5219  1.2572  0.0515
 1794WAT     H2 7239   1.907   3.873   1.129  0.4356  0.4089  0.5550
 1794WAT    EPW 7240   1.877   3.861   1.048 -0.5082  0.3757  0.8918
 1795WAT      O 7241   1.556   3.867   2.630  0.3456 -0.0553 -0.3411
 1795WAT     H1 7242   1.494   3.939   2.642 -1.6300 -1.3594 -1.9530
 1795WAT     H2 7243   1.613   3.895   2.559 -0.7164 -0.2167 -1.2868
 1795WAT    EPW 7244   1.555   3.880   2.623 -0.0550 -0.2486 -0.6784
 1796WAT      O 7245   1.685   3.097   2.981 -0.0775  0.3461 -0.2849
 1796WAT     H1 7246   1.659   3.188   2.966  1.0192  0.7141 -0.0502
 1796WAT     H2 7247   1.630   3.069   3.054  1.1106  1.5574  1.1485
 1796WAT    EPW 7248   1.674   3.106   2.988  0.2239  0.5544 -0.0649
 1797WAT      O 7249   1.907   2.288   3.388 -0.9100  0.0436  0.2287
 1797WAT     H1 7250   1.925   2.371   3.432 -2.2372 -0.3747  1.6538
 1797WAT     H2 7251   1.965   2.225   3.432 -2.4464 -0.4318  1.6847
 1797WAT    EPW 7252   1.917   2.291   3.400 -1.2877 -0.0743  0.6087
 1798WAT      O 7253   3.143   2.803   1.547  0.4971 -0.0974  0.2620
 1798WAT     H1 7254   3.164   2.896   1.543 -0.4937  0.1401  0.2046
 1798WAT     H2 7255   3.211   2.765   1.602 -0.2765  1.0471  2.1297
 1798WAT    EPW 7256   3.155   2.810   1.554  0.2644  0.0849  0.5007
 1799WAT      O 7257   2.425   2.974   3.836 -0.3942 -0.1627  0.2671
 1799WAT     H1 7258   2.503   2.965   3.782 -0.3902  1.9729 -0.1735
 1799WAT     H2 7259   2.441   2.918   3.912  2.2468  1.3423  0.9392
 1799WAT    EPW 7260   2.437   2.966   3.839 -0.0453  0.3175  0.2977
 1800WAT      O 7261   2.529   1.206   0.952  0.2868 -0.5303 -0.1625
 1800WAT     H1 7262   2.525   1.213   0.857  0.4639  0.7858 -0.0995
 1800WAT     H2 7263   2.447   1.247   0.982  1.2628  1.1756  0.2963
 1800WAT    EPW 7264   2.517   1.212   0.943  0.4389 -0.1317 -0.0937
 1801WAT      O 7265   2.156   2.586   2.016  0.6327  0.0668  0.0593
 1801WAT     H1 7266   2.221   2.517   2.030  1.0808 -0.1846 -2.7568
 1801WAT     H2 7267   2.207   2.662   1.988 -0.1938  0.0350 -1.6405
 1801WAT    EPW 7268   2.171   2.587   2.014  0.5828  0.0295 -0.5363
 1802WAT      O 7269   2.890   0.409   0.090  0.2356  0.0752 -0.6174
 1802WAT     H1 7270   2.819   0.422   0.152 -0.1727  0.0669 -1.0783
 1802WAT     H2 7271   2.962   0.375   0.143  0.3500  1.3587  0.1007
 1802WAT    EPW 7272   2.890   0.406   0.105  0.1968  0.2434 -0.5835
 1803WAT      O 7273   0.339   2.982   0.354  0.0831  0.5909 -0.1030
 1803WAT     H1 7274   0.427   2.976   0.390 -0.5538 -1.8145  1.2397
 1803WAT     H2 7275   0.319   2.894   0.322 -1.8184  1.0779 -0.4003
 1803WAT    EPW 7276   0.348   2.970   0.355 -0.2517  0.3379  0.0349
 1804WAT      O 7277   0.341   1.169   2.229  0.3719 -1.2823  0.2916
 1804WAT     H1 7278   0.326   1.247   2.176 -1.4899 -3.2076 -2.2987
 1804WAT     H2 7279   0.315   1.195   2.318  0.6341  1.2295 -0.2852
 1804WAT    EPW 7280   0.335   1.183   2.234  0.1609 -1.2049 -0.1261
 1805WAT      O 7281   3.255   2.443   2.080 -0.1453  0.4368  0.0704
 1805WAT     H1 7282   3.327   2.426   2.019 -0.0836  0.3813  0.1584
 1805WAT     H2 7283   3.194   2.497   2.031 -0.8162 -0.8293 -0.5359
 1805WAT    EPW 7284   3.256   2.448   2.066 -0.2256  0.2625  0.0021
 1806WAT      O 7285   3.299   2.703   2.269  0.6487 -0.0529 -0.3079
 1806WAT     H1 7286   3.392   2.727   2.265  0.5837  0.1233 -0.8041
 1806WAT     H2 7287   3.285   2.648   2.192 -0.4433  2.7255 -2.2569
 1806WAT    EPW 7288   3.309   2.698   2.258  0.4961  0.3368 -0.6304
 1807WAT      O 7289   1.037   3.271   3.671 -0.0536  0.0605  0.8553
 1807WAT     H1 7290   1.116   3.261   3.619 -1.7557  1.8203 -2.3435
 1807WAT     H2 7291   1.008   3.360   3.654 -3.2399 -0.8037  1.1101
 1807WAT    EPW 7292   1.043   3.281   3.662 -0.6984  0.1786  0.4670
 1808WAT      O 7293   2.771   3.593   1.247  0.1815  0.1681  0.0541
 1808WAT     H1 7294   2.709   3.601   1.320 -0.4785  2.2156 -0.6913
 1808WAT     H2 7295   2.757   3.503   1.215 -0.9848 -0.0798  1.1475
 1808WAT    EPW 7296   2.761   3.582   1.253 -0.0594  0.4054  0.1000
 1809WAT      O 7297   3.674   1.080   0.995  0.1475  0.0391  0.2427
 1809WAT     H1 7298   3.770   1.087   0.990  0.0893  0.1462 -0.8208
 1809WAT     H2 7299   3.647   1.159   1.041  0.3544  1.5741 -2.0990
 1809WAT    EPW 7300   3.683   1.091   1.001  0.1671  0.2557 -0.2064
 1810WAT      O 7301   3.039   1.522   3.183 -0.2352 -0.1238  0.5160
 1810WAT     H1 7302   3.059   1.458   3.252 -0.0666  0.0007  0.5819
 1810WAT     H2 7303   3.123   1.538   3.140 -0.2069  0.3294  0.7340
 1810WAT    EPW 7304   3.053   1.516   3.186 -0.2093 -0.0476  0.5535
 1811WAT      O 7305   1.380   3.136   3.825  0.1631  0.4094  0.4591
 1811WAT     H1 7306   1.331   3.213   3.854 -0.4816  0.2275 -0.1291
 1811WAT     H2 7307   1.347   3.118   3.737  2.0933  0.9580 -0.4245
 1811WAT    EPW 7308   1.369   3.144   3.817  0.3327  0.4578  0.2649
 1812WAT      O 7309   3.000   3.503   3.602  0.2416  0.6743 -0.1722
 1812WAT     H1 7310   3.024   3.595   3.614  3.4295  0.0210 -0.4999
 1812WAT     H2 7311   2.918   3.493   3.649 -0.5903  3.8128 -0.6954
 1812WAT    EPW 7312   2.992   3.514   3.610  0.5523  1.0021 -0.2844
 1813WAT      O 7313   2.452   0.640   3.070 -0.1092  0.2512 -0.1548
 1813WAT     H1 7314   2.400   0.566   3.039 -1.0956  0.8721 -0.0301
 1813WAT     H2 7315   2.505   0.666   2.994 -0.1868 -0.2107 -0.3682
 1813WAT    EPW 7316   2.452   0.634   3.056 -0.2495  0.2722 -0.1665
 1814WAT      O 7317   2.939   2.783   2.933  0.4358 -0.1148 -0.1662
 1814WAT     H1 7318   3.032   2.803   2.923  0.5557 -0.1579  0.7487
 1814WAT     H2 7319   2.920   2.805   3.024 -0.0093 -1.8278  0.1910
 1814WAT    EPW 7320   2.949   2.788   2.944  0.3929 -0.3464  0.0016
 1815WAT      O 7321   0.173   2.520   0.003  0.0647  0.3046 -0.1149
 1815WAT     H1 7322   0.189   2.578   0.078  1.2463  0.8404 -0.7659
 1815WAT     H2 7323   0.086   2.546  -0.029  1.2703  2.9942 -1.4761
 1815WAT    EPW 7324   0.163   2.531   0.009  0.3795  0.7300 -0.3803
 1816WAT      O 7325   0.262   2.122   0.011 -0.4314 -0.1524  0.3748
 1816WAT     H1 7326   0.330   2.185  -0.013  0.2576 -0.7864  0.6077
 1816WAT     H2 7327   0.203   2.171   0.068  0.2100  0.2286  0.7264
 1816WAT    EPW 7328   0.263   2.137   0.016 -0.2560 -0.1858  0.4519
 1817WAT      O 7329   1.048   2.444   0.506  0.0729  0.0256  0.6592
 1817WAT     H1 7330   1.128   2.455   0.454 -0.6893 -1.2707 -0.8967
 1817WAT     H2 7331   1.040   2.525   0.555  1.3679  0.9369 -0.5423
 1817WAT    EPW 7332   1.058   2.456   0.506  0.1432 -0.0251  0.2955
 1818WAT      O 7333   3.602   0.457   2.181  0.6465  0.4745  0.2465
 1818WAT     H1 7334   3.639   0.410   2.106  2.1643  2.0730 -0.0850
 1818WAT     H2 7335   3.617   0.549   2.161 -0.4479  1.0321  1.7667
 1818WAT    EPW 7336   3.609   0.463   2.168  0.7023  0.7588  0.4033
 1819WAT      O 7337   3.008   1.735   3.517  0.3661 -0.2760  0.0750
 1819WAT     H1 7338   3.034   1.797   3.586  0.7934  0.2684 -0.5702
 1819WAT     H2 7339   3.066   1.754   3.444 -0.9558  0.0634 -0.9305
 1819WAT    EPW 7340   3.019   1.745   3.517  0.2481 -0.1594 -0.1427
 1820WAT      O 7341   0.940   3.614   3.755 -0.1501 -0.1401 -0.3624
 1820WAT     H1 7342   0.938   3.699   3.800 -2.6857  0.2545 -1.0250
 1820WAT     H2 7343   0.905   3.552   3.819 -0.8609 -0.1447 -0.7385
 1820WAT    EPW 7344   0.935   3.617   3.769 -0.5783 -0.0886 -0.4994
 1821WAT      O 7345   0.703   3.471   1.986 -0.6621  0.1696 -0.0994
 1821WAT     H1 7346   0.795   3.486   2.004 -0.5035 -0.3009 -0.4985
 1821WAT     H2 7347   0.692   3.377   1.998 -1.1813  0.2795  0.3428
 1821WAT    EPW 7348   0.713   3.461   1.990 -0.7097  0.1221 -0.0937
 1822WAT      O 7349   1.825   2.352   3.124 -0.1464 -0.4952 -0.3225
 1822WAT     H1 7350   1.851   2.303   3.202 -0.2291 -1.4935 -0.9035
 1822WAT     H2 7351   1.883   2.428   3.124  1.2754 -1.5309 -0.3867
 1822WAT    EPW 7352   1.836   2.355   3.135  0.0302 -0.7635 -0.4076
 1823WAT      O 7353   2.639   0.398   2.704 -0.8730  0.5639 -0.2514
 1823WAT     H1 7354   2.611   0.429   2.618 -0.1836  3.2613  0.3963
 1823WAT     H2 7355   2.613   0.468   2.764  1.7230  0.3536  1.2340
 1823WAT    EPW 7356   2.632   0.411   2.701 -0.4397  0.8919  0.0299
 1824WAT      O 7357   0.318   2.250   1.667  0.2473 -0.1683 -0.9758
 1824WAT     H1 7358   0.311   2.295   1.751  0.5504 -2.1135  0.1627
 1824WAT     H2 7359   0.253   2.292   1.611  0.2752  1.4006  0.1026
 1824WAT    EPW 7360   0.309   2.261   1.671  0.2910 -0.2179 -0.6834
 1825WAT      O 7361   1.657   0.529   1.886 -0.0497  0.1266 -0.5902
 1825WAT     H1 7362   1.715   0.497   1.955  0.2097 -2.6906 -1.9697
 1825WAT     H2 7363   1.704   0.604   1.848  0.4126  0.8768  1.3513
 1825WAT    EPW 7364   1.671   0.535   1.890  0.0455 -0.1460 -0.5161
 1826WAT      O 7365   2.191   1.866   0.233  0.4686 -0.2671 -0.1993
 1826WAT     H1 7366   2.190   1.949   0.186 -0.3992  0.5098  1.1376
 1826WAT     H2 7367   2.104   1.859   0.272  2.3135  1.4034  5.0506
 1826WAT    EPW 7368   2.180   1.876   0.232  0.5975  0.0557  0.6694
 1827WAT      O 7369   0.813   0.171   0.777 -0.1016  0.4185  0.1876
 1827WAT     H1 7370   0.720   0.183   0.754 -0.1288  1.8095  0.8896
 1827WAT     H2 7371   0.814   0.093   0.832 -0.8116  0.1820 -0.1221
 1827WAT    EPW 7372   0.801   0.163   0.781 -0.1988  0.5708  0.2394
 1828WAT      O 7373   1.059   3.154   3.293  0.3914  0.0930 -0.2376
 1828WAT     H1 7374   1.054   3.142   3.198 -1.5642  0.0035 -0.1620
 1828WAT     H2 7375   1.004   3.231   3.310 -0.9056 -1.0440  0.9955
 1828WAT    EPW 7376   1.051   3.163   3.283 -0.0376 -0.0688 -0.0650
 1829WAT      O 7377   0.033   2.960   2.897 -0.4308 -0.2146  0.1121
 1829WAT     H1 7378   0.048   2.881   2.844 -0.1599  2.6916 -4.7724
 1829WAT     H2 7379   0.118   2.980   2.935  0.5720 -0.2225 -1.9892
 1829WAT    EPW 7380   0.046   2.952   2.895 -0.2628  0.1677 -0.8093
 1830WAT      O 7381   0.525   0.803   0.285  0.2213 -0.4226 -0.0226
 1830WAT     H1 7382   0.462   0.814   0.213  0.0572  1.0828  0.3156
 1830WAT     H2 7383   0.604   0.769   0.243 -0.2238 -0.5858 -0.7416
 1830WAT    EPW 7384   0.527   0.800   0.270  0.1409 -0.2456 -0.0728
 1831WAT      O 7385   3.375   2.305   1.448  0.1379 -0.2827  0.2124
 1831WAT     H1 7386   3.387   2.328   1.541  1.1026 -0.8088  0.2283
 1831WAT     H2 7387   3.408   2.215   1.441  1.3312  0.1994 -0.8941
 1831WAT    EPW 7388   3.381   2.296   1.460  0.4225 -0.2885  0.0685
 1832WAT      O 7389   3.338   3.855   1.346  0.0486  0.1442  0.5478
 1832WAT     H1 7390   3.378   3.942   1.351 -0.1393  0.2873 -0.3729
 1832WAT     H2 7391   3.299   3.851   1.259 -1.3430 -0.2490  1.1454
 1832WAT    EPW 7392   3.338   3.866   1.335 -0.1597  0.1112  0.5052
 1833WAT      O 7393   1.576   0.626   2.720 -0.5623  0.1638  0.1396
 1833WAT     H1 7394   1.623   0.710   2.714 -0.2448 -0.0029  0.2636
 1833WAT     H2 7395   1.508   0.641   2.785 -1.0076  0.5633 -0.4103
 1833WAT    EPW 7396   1.574   0.639   2.727 -0.5792  0.1945  0.0834
 1834WAT      O 7397   1.677   0.615   3.440  0.4030  0.0668 -0.0739
 1834WAT     H1 7398   1.670   0.649   3.529 -3.3039 -2.3883  0.8150
 1834WAT     H2 7399   1.599   0.648   3.395  1.9373  0.8571 -2.3348
 1834WAT    EPW 7400   1.666   0.624   3.445  0.1164 -0.1528 -0.2548
 1835WAT      O 7401   3.396   1.309   2.438 -0.7943 -0.3746 -0.0525
 1835WAT     H1 7402   3.355   1.391   2.411 -2.4125 -1.9440 -2.8281
 1835WAT     H2 7403   3.324   1.255   2.469  0.0057 -1.2846  0.2822
 1835WAT    EPW 7404   3.381   1.313   2.438 -0.9022 -0.7016 -0.3744
 1836WAT      O 7405   2.142   1.745   2.481  0.5066  0.0406 -0.2013
 1836WAT     H1 7406   2.182   1.658   2.481 -0.7641 -0.5854  1.0392
 1836WAT     H2 7407   2.216   1.805   2.495  1.3912 -0.8137 -1.0441
 1836WAT    EPW 7408   2.157   1.742   2.483  0.4557 -0.1546 -0.1488
 1837WAT      O 7409   2.452   3.415   0.897  0.1136  0.4791  0.2843
 1837WAT     H1 7410   2.357   3.413   0.885  0.2638  0.9269 -1.2163
 1837WAT     H2 7411   2.487   3.362   0.826  0.9684 -0.7666  1.5798
 1837WAT    EPW 7412   2.444   3.408   0.886  0.2462  0.3739  0.2572
 1838WAT      O 7413   3.154   1.636   1.174  0.8365 -0.2417  0.2189
 1838WAT     H1 7414   3.161   1.542   1.193  0.4591 -0.1208  1.0138
 1838WAT     H2 7415   3.060   1.652   1.167  0.9130  0.0222 -0.2444
 1838WAT    EPW 7416   3.142   1.625   1.176  0.7968 -0.1909  0.2626
 1839WAT      O 7417   3.680   1.075   0.645 -0.4914  0.1298 -0.0986
 1839WAT     H1 7418   3.653   1.054   0.556 -0.5694 -0.6266  0.0991
 1839WAT     H2 7419   3.660   1.168   0.655  0.7219  0.5559 -1.3148
 1839WAT    EPW 7420   3.674   1.084   0.634 -0.3417  0.0862 -0.2329
 1840WAT      O 7421   0.506   2.731   1.791  0.0087  0.5537  0.6979
 1840WAT     H1 7422   0.595   2.741   1.823  0.6445 -0.0025 -0.8235
 1840WAT     H2 7423   0.482   2.641   1.812  0.1978  0.3832  0.2059
 1840WAT    EPW 7424   0.514   2.721   1.798  0.1175  0.4579  0.4324
 1841WAT      O 7425   0.910   2.178   2.885  0.3715  0.3750 -0.5123
 1841WAT     H1 7426   0.932   2.205   2.795  0.2740  2.4207  0.0135
 1841WAT     H2 7427   0.836   2.118   2.874 -1.2727  2.4606 -1.7511
 1841WAT    EPW 7428   0.903   2.174   2.872  0.1418  0.9199 -0.6063
 1842WAT      O 7429   2.943   1.600   0.776  0.2480 -0.4203 -0.4779
 1842WAT     H1 7430   2.871   1.617   0.836  0.7361 -0.6970  0.2029
 1842WAT     H2 7431   3.018   1.646   0.814  0.4089 -0.0343 -1.2379
 1842WAT    EPW 7432   2.944   1.608   0.789  0.3336 -0.4059 -0.4884
 1843WAT      O 7433   1.766   1.055   3.629  0.0826 -0.4336  0.2072
 1843WAT     H1 7434   1.757   1.125   3.694  3.3727 -0.2090  0.5925
 1843WAT     H2 7435   1.732   1.093   3.548  1.5409  1.5992  0.4626
 1843WAT    EPW 7436   1.760   1.070   3.627  0.7089 -0.1359  0.2917
 1844WAT      O 7437   0.430   0.614   2.214 -0.4065 -0.4156 -0.0787
 1844WAT     H1 7438   0.372   0.617   2.291 -0.1341 -1.0036  0.1467
 1844WAT     H2 7439   0.370   0.615   2.140 -0.7000 -0.6615  0.1515
 1844WAT    EPW 7440   0.414   0.615   2.215 -0.4093 -0.5256 -0.0186
 1845WAT      O 7441   1.247   3.707   3.963  0.2058  0.4259 -0.0451
 1845WAT     H1 7442   1.238   3.642   4.033  0.7783  1.2997  0.8683
 1845WAT     H2 7443   1.189   3.676   3.894  1.5005 -1.8112 -0.2134
 1845WAT    EPW 7444   1.238   3.694   3.964  0.4521  0.2461  0.0532
 1846WAT      O 7445   2.063   1.956   0.963 -0.6632  0.6105 -0.1323
 1846WAT     H1 7446   2.156   1.959   0.941  0.1842 -0.1633  2.9139
 1846WAT     H2 7447   2.051   2.027   1.026 -1.8712 -0.0090  0.3698
 1846WAT    EPW 7448   2.074   1.966   0.969 -0.7108  0.4267  0.3357
 1847WAT      O 7449   0.111   3.988   2.617  0.1062 -0.1735  0.1219
 1847WAT     H1 7450   0.120   3.940   2.700 -2.3268 -0.1836  0.4514
 1847WAT     H2 7451   0.066   3.928   2.559 -0.8211  0.8309 -0.2427
 1847WAT    EPW 7452   0.107   3.974   2.620 -0.3370 -0.0424  0.1172
 1848WAT      O 7453   3.388   1.702   1.018 -0.0130 -0.0145  0.0326
 1848WAT     H1 7454   3.417   1.616   0.988 -0.4630 -0.4781  0.8820
 1848WAT     H2 7455   3.314   1.683   1.076 -0.4180  0.9768 -0.1364
 1848WAT    EPW 7456   3.382   1.689   1.021 -0.1258  0.0551  0.1224
 1849WAT      O 7457   2.794   1.241   2.497  0.5478  0.5147 -0.1883
 1849WAT     H1 7458   2.871   1.294   2.479  0.9432  0.0023 -0.0459
 1849WAT     H2 7459   2.828   1.165   2.545 -0.2853  1.1692  1.4977
 1849WAT    EPW 7460   2.809   1.238   2.501  0.4901  0.5334  0.0529
 1850WAT      O 7461   1.710   0.484   3.699 -0.0912 -0.1891 -0.0738
 1850WAT     H1 7462   1.691   0.488   3.793 -0.1020 -0.4340 -0.0633
 1850WAT     H2 7463   1.804   0.468   3.695  0.2118  1.4660 -0.1313
 1850WAT    EPW 7464   1.720   0.482   3.711 -0.0527 -0.0031 -0.0800
 1851WAT      O 7465   1.679   4.052   1.961  0.0541  0.4794  0.1322
 1851WAT     H1 7466   1.722   4.098   2.033 -0.0265 -0.0900  0.5551
 1851WAT     H2 7467   1.586   4.069   1.975  0.0667  0.7397 -0.0999
 1851WAT    EPW 7468   1.672   4.060   1.973  0.0451  0.4386  0.1574
 1852WAT      O 7469   3.603   0.816   1.613  0.2828 -0.7707 -0.0232
 1852WAT     H1 7470   3.608   0.822   1.708  1.1479  0.3281 -0.1201
 1852WAT     H2 7471   3.577   0.904   1.585 -1.2146 -1.4089 -0.7439
 1852WAT    EPW 7472   3.600   0.828   1.622  0.1994 -0.7099 -0.1310
 1853WAT      O 7473   1.481   3.027   2.711 -0.0206  0.1729 -0.2224
 1853WAT     H1 7474   1.526   3.110   2.694  2.1792 -0.7978  0.5107
 1853WAT     H2 7475   1.476   2.985   2.626 -1.7821  1.2981 -0.7276
 1853WAT    EPW 7476   1.486   3.032   2.698  0.0372  0.1933 -0.1923
 1854WAT      O 7477   0.159   4.173   0.354 -0.5433  0.0930  0.0950
 1854WAT     H1 7478   0.238   4.197   0.402  0.6092 -0.8879 -1.2037
 1854WAT     H2 7479   0.091   4.231   0.389  0.6684  0.7581  1.4689
 1854WAT    EPW 7480   0.161   4.184   0.365 -0.2315  0.0514  0.1049
 1855WAT      O 7481   3.375   3.890   0.124  0.0680  0.5008  0.0617
 1855WAT     H1 7482   3.464   3.887   0.089 -0.2685 -0.5481 -0.7714
 1855WAT     H2 7483   3.387   3.911   0.217  1.3603 -1.6769  0.4707
 1855WAT    EPW 7484   3.389   3.892   0.132  0.1940  0.0752  0.0057
 1856WAT      O 7485   0.153   3.606   2.189  0.5738 -0.1529  0.2689
 1856WAT     H1 7486   0.126   3.618   2.281  0.3618  0.5527  0.1228
 1856WAT     H2 7487   0.128   3.516   2.169  0.8697 -0.4076  0.9852
 1856WAT    EPW 7488   0.146   3.596   2.199  0.5848 -0.0934  0.3441
 1857WAT      O 7489   1.527   3.021   0.255  0.3501  0.6015  0.2618
 1857WAT     H1 7490   1.571   3.035   0.339 -1.0557  2.1186  0.8054
 1857WAT     H2 7491   1.521   2.926   0.246 -0.0119  0.4014  2.2072
 1857WAT    EPW 7492   1.532   3.010   0.265  0.1169  0.7752  0.5901
 1858WAT      O 7493   2.552   0.006   2.247 -0.0522 -0.0168  0.1777
 1858WAT     H1 7494   2.540   0.019   2.341  0.1462  2.5947 -0.0819
 1858WAT     H2 7495   2.466  -0.023   2.216 -0.4092  0.1155  1.0176
 1858WAT    EPW 7496   2.539   0.004   2.255 -0.0731  0.3451  0.2543
 1859WAT      O 7497   1.505   2.872   2.464 -0.2601  0.4955  0.1734
 1859WAT     H1 7498   1.495   2.846   2.372  1.0695  1.2113 -0.1866
 1859WAT     H2 7499   1.597   2.894   2.474 -0.9883  3.7117  0.8042
 1859WAT    EPW 7500   1.516   2.871   2.453 -0.1808  1.0141  0.2091
 1860WAT      O 7501   1.378   3.226   0.635 -0.8349  0.4008 -0.2837
 1860WAT     H1 7502   1.453   3.181   0.597 -0.4582  1.2422 -0.5624
 1860WAT     H2 7503   1.315   3.234   0.563 -0.8171  0.5113 -0.2864
 1860WAT    EPW 7504   1.379   3.221   0.620 -0.7829  0.5263 -0.3208
 1861WAT      O 7505   3.510   1.989   1.690 -0.0891  0.2948 -0.2895
 1861WAT     H1 7506   3.515   1.986   1.595  0.0235  1.0958 -0.3115
 1861WAT     H2 7507   3.553   1.908   1.719 -2.2857 -1.2030 -0.9671
 1861WAT    EPW 7508   3.516   1.978   1.681 -0.3640  0.2029 -0.3818
 1862WAT      O 7509   1.416   2.694   0.218 -0.0818  0.1624  0.2816
 1862WAT     H1 7510   1.360   2.739   0.155 -0.7992  0.0669  0.8414
 1862WAT     H2 7511   1.491   2.665   0.166 -0.3178  0.7005 -0.3833
 1862WAT    EPW 7512   1.419   2.696   0.203 -0.2075  0.2207  0.2678
 1863WAT      O 7513   0.250   0.377   2.836 -0.2715 -0.3955 -0.5069
 1863WAT     H1 7514   0.162   0.398   2.868  0.5504  0.6894  1.2018
 1863WAT     H2 7515   0.295   0.461   2.831  0.6765 -0.9337 -1.3784
 1863WAT    EPW 7516   0.244   0.391   2.840 -0.0380 -0.3234 -0.3965
 1864WAT      O 7517   0.138   1.168   1.880 -0.6666 -0.1050  0.3922
 1864WAT     H1 7518   0.207   1.129   1.827 -1.3674 -0.6266 -0.1610
 1864WAT     H2 7519   0.072   1.098   1.889 -1.0495  0.3198  1.0503
 1864WAT    EPW 7520   0.138   1.153   1.874 -0.8095 -0.1178  0.4061
 1865WAT      O 7521   2.362   1.462   0.080  0.0356 -0.3320 -0.0300
 1865WAT     H1 7522   2.437   1.502   0.125 -0.3476  1.8656 -1.2112
 1865WAT     H2 7523   2.311   1.422   0.151  0.5479  1.1602  1.2597
 1865WAT    EPW 7524   2.365   1.462   0.096  0.0527  0.1547 -0.0157
 1866WAT      O 7525   3.240   3.005   0.431 -0.2244  0.0685 -0.4703
 1866WAT     H1 7526   3.168   2.987   0.491 -0.3199  0.4038 -0.4843
 1866WAT     H2 7527   3.202   2.993   0.344  0.3152 -2.0251 -0.4786
 1866WAT    EPW 7528   3.225   3.001   0.427 -0.1658 -0.1634 -0.4733
 1867WAT      O 7529   1.752   3.943   2.426 -0.9907 -0.1642  0.1758
 1867WAT     H1 7530   1.798   3.903   2.352  1.0089 -0.2036  1.3753
 1867WAT     H2 7531   1.799   4.024   2.443 -1.8219  0.1589  1.0386
 1867WAT    EPW 7532   1.764   3.949   2.418 -0.8366 -0.1267  0.4478
 1868WAT      O 7533   3.230   2.544   0.101  0.0898  0.0894  0.2316
 1868WAT     H1 7534   3.183   2.571   0.022 -2.4327 -2.8119  0.5691
 1868WAT     H2 7535   3.198   2.603   0.169 -2.8373 -1.4047  0.3147
 1868WAT    EPW 7536   3.220   2.555   0.100 -0.6290 -0.4903  0.2870
 1869WAT      O 7537   0.332   1.496   0.543  0.0665  0.2705  0.0591
 1869WAT     H1 7538   0.259   1.539   0.589 -0.0806 -1.3046  1.3834
 1869WAT     H2 7539   0.408   1.513   0.597  0.3050  0.1907 -0.2487
 1869WAT    EPW 7540   0.332   1.504   0.556  0.0786  0.0522  0.1932
 1870WAT      O 7541   3.001   2.700   1.044  0.3134 -0.5712  0.2547
 1870WAT     H1 7542   3.035   2.778   1.089 -0.8937  0.0551  0.1147
 1870WAT     H2 7543   2.979   2.731   0.956 -0.8111 -0.8929  0.4118
 1870WAT    EPW 7544   3.003   2.715   1.039  0.0059 -0.5310  0.2570
 1871WAT      O 7545   2.641   1.613   0.447 -0.0886  0.1124  0.0850
 1871WAT     H1 7546   2.717   1.662   0.480  0.8068 -0.2449 -1.3561
 1871WAT     H2 7547   2.671   1.522   0.443 -1.5543 -0.5373  2.2083
 1871WAT    EPW 7548   2.655   1.607   0.451 -0.1638 -0.0204  0.1750
 1872WAT      O 7549   0.281   3.916   0.328  0.0934 -0.0025 -0.4225
 1872WAT     H1 7550   0.241   3.879   0.249 -0.1213  0.0104 -0.3178
 1872WAT     H2 7551   0.228   3.993   0.348 -1.1481 -1.1756  0.9509
 1872WAT    EPW 7552   0.269   3.921   0.320 -0.0987 -0.1555 -0.2276
 1873WAT      O 7553   0.359   1.596   3.060  0.4221  0.4396  0.1497
 1873WAT     H1 7554   0.311   1.636   3.133  0.5245  0.0951  0.4101
 1873WAT     H2 7555   0.351   1.502   3.076 -0.2194  0.3352 -0.7095
 1873WAT    EPW 7556   0.352   1.589   3.072  0.3510  0.3804  0.0707
 1874WAT      O 7557   1.674   0.041   1.019 -0.4827 -0.1138 -0.1682
 1874WAT     H1 7558   1.716   0.038   0.933 -2.1719  0.0677 -1.0575
 1874WAT     H2 7559   1.604   0.106   1.008 -0.4333  0.2571  1.4971
 1874WAT    EPW 7560   1.670   0.049   1.006 -0.6990 -0.0409 -0.0659
 1875WAT      O 7561   3.543   1.710   2.412  0.0267 -0.0700  0.3772
 1875WAT     H1 7562   3.459   1.670   2.435 -0.1046 -0.4740 -0.7526
 1875WAT     H2 7563   3.585   1.728   2.496  0.5916 -3.5617  0.9732
 1875WAT    EPW 7564   3.537   1.707   2.426  0.0839 -0.5838  0.3068
 1876WAT      O 7565   1.429   2.764   0.531  0.5992 -0.1086 -0.2456
 1876WAT     H1 7566   1.350   2.719   0.563  0.5171  0.7768  0.8121
 1876WAT     H2 7567   1.396   2.825   0.465  0.3541  0.4505  0.3842
 1876WAT    EPW 7568   1.414   2.766   0.526  0.5561  0.0819 -0.0230
 1877WAT      O 7569   2.966   2.881   3.973  0.2040  0.4528 -0.1914
 1877WAT     H1 7570   2.953   2.947   3.905  0.1562  0.8181  0.1701
 1877WAT     H2 7571   2.889   2.890   4.031  0.1183 -0.0234 -0.2274
 1877WAT    EPW 7572   2.954   2.891   3.972  0.1864  0.4382 -0.1484
 1878WAT      O 7573   3.177   3.368   0.919  0.2506  0.2356 -0.4453
 1878WAT     H1 7574   3.270   3.345   0.909  0.8190  3.0250 -3.0442
 1878WAT     H2 7575   3.137   3.343   0.835 -0.9278  0.7843 -0.0666
 1878WAT    EPW 7576   3.184   3.362   0.906  0.1701  0.6759 -0.7381
 1879WAT      O 7577   0.752   2.309   3.838 -0.2248  0.6010 -0.0006
 1879WAT     H1 7578   0.658   2.314   3.852 -0.2645  1.0020 -0.3840
 1879WAT     H2 7579   0.770   2.215   3.829 -0.6836  0.5658 -0.5689
 1879WAT    EPW 7580   0.742   2.297   3.839 -0.2905  0.6493 -0.1261
 1880WAT      O 7581   0.244   1.239   0.513  0.0347 -0.3163 -0.7465
 1880WAT     H1 7582   0.274   1.330   0.522 -1.5271  0.3205 -1.5019
 1880WAT     H2 7583   0.153   1.247   0.484 -0.7764 -2.1211  1.0562
 1880WAT    EPW 7584   0.236   1.252   0.511 -0.2783 -0.4703 -0.6084
 1881WAT      O 7585   0.659   4.035   2.908  0.4862  0.0844 -0.4225
 1881WAT     H1 7586   0.640   4.109   2.850 -1.0396 -0.1925 -0.3178
 1881WAT     H2 7587   0.651   3.958   2.851  1.8964 -0.0376 -0.4916
 1881WAT    EPW 7588   0.655   4.035   2.892  0.4710  0.0318 -0.4178
 1882WAT      O 7589   2.019   1.427   3.910  0.1601  0.4296 -0.2008
 1882WAT     H1 7590   2.018   1.403   4.003 -3.1089 -0.1110 -0.2686
 1882WAT     H2 7591   1.994   1.519   3.909  0.1596  0.4261 -0.5262
 1882WAT    EPW 7592   2.016   1.436   3.922 -0.2711  0.3579 -0.2526
 1883WAT      O 7593   2.320   2.239   0.944 -0.7816 -0.1686  0.0054
 1883WAT     H1 7594   2.322   2.170   0.878 -0.1289  0.7742 -1.0016
 1883WAT     H2 7595   2.233   2.280   0.933  0.2357  1.6557 -2.1330
 1883WAT    EPW 7596   2.308   2.235   0.934 -0.5613  0.1964 -0.4094
 1884WAT      O 7597   1.224   1.643   1.916 -0.2629 -0.2328  0.6942
 1884WAT     H1 7598   1.268   1.566   1.952  0.2419  0.1671  0.9423
 1884WAT     H2 7599   1.266   1.717   1.960 -0.1044  0.2275 -0.2131
 1884WAT    EPW 7600   1.235   1.643   1.926 -0.1754 -0.1193  0.6072
 1885WAT      O 7601   2.908   3.525   0.717  0.2981 -0.1906  0.4858
 1885WAT     H1 7602   2.919   3.580   0.794  1.4068  0.6717 -0.2515
 1885WAT     H2 7603   2.975   3.457   0.727 -0.0559 -0.5160  0.6479
 1885WAT    EPW 7604   2.918   3.523   0.728  0.3976 -0.1198  0.4099
 1886WAT      O 7605   0.802   2.434   2.835  0.0367  0.5487 -0.5305
 1886WAT     H1 7606   0.890   2.471   2.843  0.1561  0.2270 -0.3394
 1886WAT     H2 7607   0.813   2.341   2.856 -0.8646  1.0572  2.9504
 1886WAT    EPW 7608   0.815   2.427   2.839 -0.0664  0.5733 -0.0462
 1887WAT      O 7609   3.182   0.912   3.405 -0.1344 -0.1449  0.4208
 1887WAT     H1 7610   3.206   0.978   3.340 -0.4626 -0.6990 -0.2802
 1887WAT     H2 7611   3.185   0.829   3.358 -2.3407 -0.3683  0.5379
 1887WAT    EPW 7612   3.185   0.909   3.390 -0.4687 -0.2474  0.3438
 1888WAT      O 7613   1.431   2.793   2.198 -0.6044  0.8195  0.5485
 1888WAT     H1 7614   1.422   2.729   2.128 -2.7966  1.9138 -0.2660
 1888WAT     H2 7615   1.510   2.843   2.175  0.3473 -0.6733  0.4782
 1888WAT    EPW 7616   1.441   2.791   2.186 -0.7680  0.7670  0.4318
 1889WAT      O 7617   1.142   4.095   1.821  0.3896 -0.5021 -0.0959
 1889WAT     H1 7618   1.065   4.145   1.849  1.2112 -0.1784  1.7475
 1889WAT     H2 7619   1.110   4.039   1.751 -0.9211  1.4958 -1.2076
 1889WAT    EPW 7620   1.127   4.094   1.815  0.3251 -0.1959  0.0006
 1890WAT      O 7621   2.780   1.130   2.950 -0.4947 -0.3330 -0.2659
 1890WAT     H1 7622   2.865   1.086   2.957  0.0745  0.8265  0.5353
 1890WAT     H2 7623   2.799   1.211   2.903 -1.6218 -1.1329 -2.2229
 1890WAT    EPW 7624   2.794   1.135   2.944 -0.5683 -0.2856 -0.4183
 1891WAT      O 7625   1.587   0.359   3.280  0.3019  0.0460 -0.1320
 1891WAT     H1 7626   1.527   0.419   3.235  0.2701  0.4622  0.4534
 1891WAT     H2 7627   1.654   0.339   3.214  1.8286  2.8643  0.3967
 1891WAT    EPW 7628   1.588   0.365   3.265  0.4991  0.4726  0.0149
 1892WAT      O 7629   1.619   0.198   2.636  0.2401  0.1178 -0.0107
 1892WAT     H1 7630   1.595   0.244   2.555 -0.8623 -1.5706 -0.6944
 1892WAT     H2 7631   1.713   0.212   2.645  0.1050  1.7040 -0.6765
 1892WAT    EPW 7632   1.628   0.206   2.627  0.0769  0.1043 -0.1887
 1893WAT      O 7633   0.631   2.411   3.046 -0.1721  0.2085 -0.0148
 1893WAT     H1 7634   0.623   2.488   3.103 -1.5380  1.7032 -2.0910
 1893WAT     H2 7635   0.715   2.422   3.003  1.2305 -1.3266  2.1178
 1893WAT    EPW 7636   0.641   2.423   3.048 -0.1673  0.2031 -0.0073
 1894WAT      O 7637   0.966   0.138   2.761 -0.0376 -0.4489  0.1253
 1894WAT     H1 7638   0.997   0.048   2.776  0.3292 -0.3113  0.2005
 1894WAT     H2 7639   1.045   0.189   2.751 -0.2529 -0.1679 -0.1473
 1894WAT    EPW 7640   0.980   0.133   2.762 -0.0176 -0.3937  0.0993
 1895WAT      O 7641   1.389   4.160   0.186 -0.4392 -0.6685  0.6679
 1895WAT     H1 7642   1.427   4.247   0.201 -1.3749 -0.3647  1.3386
 1895WAT     H2 7643   1.381   4.122   0.273 -0.7912 -1.1028  0.4479
 1895WAT    EPW 7644   1.393   4.166   0.199 -0.6091 -0.6857  0.7273
 1896WAT      O 7645   1.265   1.318   2.354 -0.9780 -0.0474  0.3657
 1896WAT     H1 7646   1.260   1.359   2.268  0.8137 -1.8154 -0.6735
 1896WAT     H2 7647   1.187   1.263   2.359 -0.1312 -1.4855 -1.0792
 1896WAT    EPW 7648   1.254   1.316   2.343 -0.6300 -0.4703  0.0381
 1897WAT      O 7649   2.957   0.300   2.165 -0.2328 -0.2415 -0.3104
 1897WAT     H1 7650   2.903   0.330   2.237 -0.6278  0.0535 -0.7293
 1897WAT     H2 7651   3.037   0.267   2.207 -0.9588 -1.2032  0.3485
 1897WAT    EPW 7652   2.961   0.299   2.180 -0.3807 -0.3294 -0.2787
 1898WAT      O 7653   0.251   1.544   3.770 -0.4845  0.0472  0.0139
 1898WAT     H1 7654   0.189   1.484   3.812 -0.4604  1.0973  1.6642
 1898WAT     H2 7655   0.332   1.494   3.764 -0.2131  0.1010  2.1847
 1898WAT    EPW 7656   0.254   1.530   3.775 -0.4455  0.1928  0.5179
 1899WAT      O 7657   0.447   3.182   0.781 -0.1721  0.6725 -0.7444
 1899WAT     H1 7658   0.448   3.195   0.875 -0.6208  0.6594 -0.7365
 1899WAT     H2 7659   0.517   3.118   0.765 -0.1602  0.6004 -0.4138
 1899WAT    EPW 7660   0.457   3.175   0.791 -0.2298  0.6613 -0.6997
 1900WAT      O 7661   0.654   3.963   0.243 -0.3010 -0.0387 -0.9672
 1900WAT     H1 7662   0.664   3.927   0.155 -1.3213  0.5261 -1.3366
 1900WAT     H2 7663   0.601   3.898   0.289 -0.1674 -0.1112 -0.9157
 1900WAT    EPW 7664   0.648   3.950   0.237 -0.4180  0.0262 -1.0091
 1901WAT      O 7665   2.211   0.348   3.246  0.1591 -0.0579 -0.3286
 1901WAT     H1 7666   2.181   0.434   3.216 -1.0070 -0.5636 -0.6683
 1901WAT     H2 7667   2.239   0.363   3.336 -1.1422  0.4664  0.0178
 1901WAT    EPW 7668   2.211   0.361   3.254 -0.1664 -0.0554 -0.3277
 1902WAT      O 7669   0.687   0.633   1.940 -0.0251 -0.6986  0.2383
 1902WAT     H1 7670   0.780   0.642   1.958 -0.2975  1.9880  0.6444
 1902WAT     H2 7671   0.644   0.652   2.024 -1.0092  2.5165 -0.8597
 1902WAT    EPW 7672   0.693   0.637   1.954 -0.1908  0.0798  0.1470
 1903WAT      O 7673   2.530   2.488   0.022 -0.1205 -0.3824 -0.1759
 1903WAT     H1 7674   2.487   2.526  -0.055  0.6906  1.3529  0.1836
 1903WAT     H2 7675   2.572   2.409  -0.011  0.5760  0.5585 -1.6494
 1903WAT    EPW 7676   2.530   2.483   0.007  0.0783 -0.0294 -0.3229
 1904WAT      O 7677   1.094   1.432   0.684 -0.3988 -0.1517 -0.0244
 1904WAT     H1 7678   1.163   1.380   0.725  0.6111  0.4508 -0.9173
 1904WAT     H2 7679   1.119   1.438   0.592 -1.0307  1.0465 -0.1373
 1904WAT    EPW 7680   1.106   1.426   0.678 -0.3489  0.0858 -0.1570
 1905WAT      O 7681   1.947   1.501   2.599 -0.5373 -1.1059  0.2241
 1905WAT     H1 7682   1.889   1.425   2.586 -0.6180 -0.7683 -1.7947
 1905WAT     H2 7683   2.018   1.487   2.536  0.5155 -0.4809  1.2357
 1905WAT    EPW 7684   1.949   1.489   2.589 -0.4091 -0.9789  0.0912
 1906WAT      O 7685   0.580   3.623   3.987 -0.0097 -0.3155  0.6714
 1906WAT     H1 7686   0.585   3.714   3.955 -0.3977 -0.3741  0.4519
 1906WAT     H2 7687   0.502   3.621   4.041 -0.1700 -0.6024  0.4272
 1906WAT    EPW 7688   0.571   3.635   3.990 -0.0820 -0.3611  0.6103
 1907WAT      O 7689   3.601   2.351   2.764  0.1968  0.4961 -0.4248
 1907WAT     H1 7690   3.568   2.425   2.713  1.3531  1.0176 -0.4257
 1907WAT     H2 7691   3.564   2.274   2.720  0.6161  0.9680 -1.6484
 1907WAT    EPW 7692   3.592   2.350   2.751  0.4046  0.6271 -0.5863
 1908WAT      O 7693   2.134   2.658   0.307  0.8620 -0.0855 -0.2426
 1908WAT     H1 7694   2.073   2.585   0.302  0.6031  0.1937 -1.4506
 1908WAT     H2 7695   2.079   2.736   0.300  1.1509  0.2369  0.8512
 1908WAT    EPW 7696   2.119   2.659   0.306  0.8660 -0.0061 -0.2577
 1909WAT      O 7697   1.323   1.768   0.232  0.4442 -0.3786 -0.6453
 1909WAT     H1 7698   1.250   1.733   0.180 -1.4335 -1.1775  2.3099
 1909WAT     H2 7699   1.375   1.691   0.254  0.9836 -0.1034 -0.9473
 1909WAT    EPW 7700   1.320   1.753   0.228  0.2677 -0.4477 -0.2953
 1910WAT      O 7701   2.437   3.734   3.204  0.4222  0.8983 -0.7723
 1910WAT     H1 7702   2.386   3.771   3.276  1.0974  1.9135 -0.7940
 1910WAT     H2 7703   2.376   3.732   3.130  0.0558  0.9151 -0.4733
 1910WAT    EPW 7704   2.422   3.739   3.203  0.4629  1.0344 -0.7358
 1911WAT      O 7705   0.320   0.457   0.505 -0.4090 -0.1039  0.4447
 1911WAT     H1 7706   0.304   0.380   0.561 -2.4191 -0.0927 -0.0571
 1911WAT     H2 7707   0.266   0.443   0.428 -1.3911  2.1377  0.6458
 1911WAT    EPW 7708   0.311   0.445   0.502 -0.8037  0.1932  0.4050
 1912WAT      O 7709   3.432   2.190   0.891 -0.0189 -0.3266  0.0255
 1912WAT     H1 7710   3.357   2.204   0.833 -0.4565 -2.2647  0.0521
 1912WAT     H2 7711   3.403   2.222   0.976 -0.7969 -0.9200 -0.0004
 1912WAT    EPW 7712   3.418   2.196   0.894 -0.1792 -0.6605  0.0256
 1913WAT      O 7713   1.910   3.791   2.650 -0.0589  0.0868 -0.1325
 1913WAT     H1 7714   1.850   3.803   2.576 -0.0406 -0.2195 -0.1973
 1913WAT     H2 7715   1.997   3.801   2.612 -0.0826  2.3221  0.2728
 1913WAT    EPW 7716   1.914   3.794   2.635 -0.0596  0.3413 -0.0876
 1914WAT      O 7717   2.728   1.381   3.322  0.2334 -0.5326  0.2521
 1914WAT     H1 7718   2.749   1.291   3.343 -0.0547 -0.4977  0.6932
 1914WAT     H2 7719   2.767   1.433   3.392  0.2717 -0.3238  0.0806
 1914WAT    EPW 7720   2.736   1.376   3.334  0.2004 -0.5004  0.2876
 1915WAT      O 7721   1.913   2.209   1.526 -0.2256 -0.3847 -0.7069
 1915WAT     H1 7722   1.864   2.197   1.608 -0.8507 -1.4232 -1.2094
 1915WAT     H2 7723   1.993   2.160   1.539 -1.2892 -2.4550 -1.4918
 1915WAT    EPW 7724   1.917   2.201   1.538 -0.4484 -0.7947 -0.8767
 1916WAT      O 7725   0.697   1.767   3.955 -0.2021  0.1417 -0.0388
 1916WAT     H1 7726   0.717   1.712   3.879  1.0619  0.3322  0.1239
 1916WAT     H2 7727   0.602   1.765   3.962 -0.4610  1.0448 -2.3295
 1916WAT    EPW 7728   0.687   1.759   3.946 -0.0695  0.2860 -0.3194
 1917WAT      O 7729   1.879   2.158   1.981 -0.2874 -0.2038  0.2018
 1917WAT     H1 7730   1.807   2.181   1.923 -1.3570  2.1623  2.3255
 1917WAT     H2 7731   1.846   2.084   2.032 -1.3723  0.9913  1.3001
 1917WAT    EPW 7732   1.865   2.151   1.980 -0.5716  0.2659  0.6267
 1918WAT      O 7733   0.944   2.061   2.354  0.0537 -0.7279  0.3213
 1918WAT     H1 7734   0.957   2.148   2.316 -0.8354 -0.1384  1.3089
 1918WAT     H2 7735   1.030   2.036   2.386  0.3043 -0.1778  0.0989
 1918WAT    EPW 7736   0.957   2.069   2.353 -0.0305 -0.5776  0.4223
 1919WAT      O 7737   0.221   2.528   3.495  0.1519  0.3633  0.1257
 1919WAT     H1 7738   0.214   2.474   3.417  0.3631 -1.2580  1.1840
 1919WAT     H2 7739   0.134   2.526   3.535  0.7590 -1.3471  1.4938
 1919WAT    EPW 7740   0.209   2.521   3.490  0.2598 -0.0762  0.4457
 1920WAT      O 7741   2.257   2.414   0.129  0.3062  0.0756  0.5456
 1920WAT     H1 7742   2.334   2.442   0.080 -0.5035  2.9235  0.7217
 1920WAT     H2 7743   2.281   2.329   0.166  2.1275 -0.6515 -2.0460
 1920WAT    EPW 7744   2.270   2.407   0.128  0.4397  0.3553  0.2270
 1921WAT      O 7745   1.824   1.122   2.711  0.7229  0.5222  0.1558
 1921WAT     H1 7746   1.800   1.162   2.795  0.9890 -0.7133  0.8424
 1921WAT     H2 7747   1.888   1.054   2.734  0.1975 -0.3788 -0.9586
 1921WAT    EPW 7748   1.830   1.118   2.725  0.6887  0.2404  0.0994
 1922WAT      O 7749   0.867   4.095   2.512  0.2110  0.1691 -0.1193
 1922WAT     H1 7750   0.792   4.123   2.566  0.4449 -0.5203  0.5917
 1922WAT     H2 7751   0.827   4.056   2.434 -0.1471  0.6625 -0.1860
 1922WAT    EPW 7752   0.852   4.093   2.509  0.1946  0.1432 -0.0343
 1923WAT      O 7753   0.472   3.251   3.532  0.0786  0.2241 -0.5068
 1923WAT     H1 7754   0.515   3.182   3.480 -1.1545  1.1108 -2.8208
 1923WAT     H2 7755   0.528   3.328   3.521  0.0422  0.3095 -0.1235
 1923WAT    EPW 7756   0.485   3.252   3.524 -0.0889  0.3523 -0.7615
 1924WAT      O 7757   1.429   0.765   3.391  0.7568  0.1428 -0.5174
 1924WAT     H1 7758   1.349   0.713   3.385  0.7304 -0.0946  1.3006
 1924WAT     H2 7759   1.433   0.812   3.308 -0.1928 -1.3646 -1.4645
 1924WAT    EPW 7760   1.419   0.765   3.379  0.6281 -0.0874 -0.4025
 1925WAT      O 7761   1.721   1.972   1.270 -0.5887  0.0945  0.0093
 1925WAT     H1 7762   1.808   1.958   1.307 -0.9825 -0.2998  0.7992
 1925WAT     H2 7763   1.672   2.017   1.339 -1.2693 -0.4580 -0.0995
 1925WAT    EPW 7764   1.726   1.976   1.284 -0.7304 -0.0304  0.0992
 1926WAT      O 7765   3.203   3.992   3.403  0.2996  0.1574  0.4692
 1926WAT     H1 7766   3.204   3.965   3.311 -0.9865 -0.3193  0.5711
 1926WAT     H2 7767   3.151   4.072   3.404 -0.4837 -0.3489  0.8972
 1926WAT    EPW 7768   3.196   3.999   3.391  0.0267  0.0277  0.5391
 1927WAT      O 7769   2.828   3.323   3.003  0.1491  0.2408 -0.3195
 1927WAT     H1 7770   2.754   3.384   3.004  0.3839  0.5946 -1.7185
 1927WAT     H2 7771   2.797   3.249   2.950 -0.7628 -1.7790  2.7258
 1927WAT    EPW 7772   2.814   3.321   2.996  0.0598  0.0210 -0.1024
 1928WAT      O 7773   2.347   0.888   0.613  0.2020  0.2292 -0.6038
 1928WAT     H1 7774   2.440   0.871   0.599  0.2625  0.1575 -0.1180
 1928WAT     H2 7775   2.328   0.849   0.698 -0.6630 -1.2271 -1.4278
 1928WAT    EPW 7776   2.357   0.881   0.623  0.0959  0.0277 -0.6484
 1929WAT      O 7777   3.245   1.959   0.667 -0.0011 -0.0247 -0.2964
 1929WAT     H1 7778   3.187   1.906   0.722  0.5766  0.6207  0.9630
 1929WAT     H2 7779   3.190   2.029   0.634 -0.4261 -0.5917 -0.8127
 1929WAT    EPW 7780   3.230   1.961   0.670  0.0190 -0.0144 -0.1984
 1930WAT      O 7781   0.578   2.012   1.681  0.4348 -0.0575 -0.2301
 1930WAT     H1 7782   0.666   2.049   1.680 -0.0643  1.2078 -1.7102
 1930WAT     H2 7783   0.520   2.088   1.691 -0.5910 -0.5059 -2.2323
 1930WAT    EPW 7784   0.582   2.027   1.682  0.2336  0.0502 -0.6894
 1931WAT      O 7785   1.723   1.086   0.664  0.3823 -0.3490  0.0004
 1931WAT     H1 7786   1.775   1.080   0.584  0.2899 -0.0036 -0.0902
 1931WAT     H2 7787   1.633   1.073   0.635  0.2195  0.9369 -0.1444
 1931WAT    EPW 7788   1.718   1.084   0.650  0.3487 -0.1338 -0.0306
 1932WAT      O 7789   1.437   2.137   2.830 -0.0352 -0.3113 -0.3154
 1932WAT     H1 7790   1.343   2.121   2.827 -0.3719  1.4138 -2.3947
 1932WAT     H2 7791   1.452   2.184   2.912 -0.8825 -1.1088  0.2980
 1932WAT    EPW 7792   1.427   2.141   2.840 -0.1913 -0.1890 -0.5087
 1933WAT      O 7793   1.499   3.817   0.087  0.6310  0.1155 -0.4866
 1933WAT     H1 7794   1.416   3.790   0.047 -0.2386  1.1955  0.4960
 1933WAT     H2 7795   1.476   3.894   0.139  2.2139  0.2751  0.0225
 1933WAT    EPW 7796   1.485   3.824   0.089  0.7251  0.2790 -0.2898
 1934WAT      O 7797   2.582   1.604   0.163 -0.3145  0.1405 -0.0363
 1934WAT     H1 7798   2.662   1.552   0.150 -0.0204  0.5163  0.2467
 1934WAT     H2 7799   2.593   1.643   0.250 -0.2863  1.1090 -0.4653
 1934WAT    EPW 7800   2.594   1.602   0.173 -0.2720  0.3178 -0.0556
 1935WAT      O 7801   0.844   0.942   1.827  0.0262 -0.4367 -0.1376
 1935WAT     H1 7802   0.808   0.938   1.915  0.0110  1.5864  0.0121
 1935WAT     H2 7803   0.933   0.975   1.839 -0.3408  0.9582 -0.8929
 1935WAT    EPW 7804   0.851   0.946   1.840 -0.0242  0.0141 -0.2175
 1936WAT      O 7805   0.634   1.613   3.086 -0.2531 -0.6580  0.3193
 1936WAT     H1 7806   0.539   1.607   3.079 -0.1838  0.0506 -1.7908
 1936WAT     H2 7807   0.648   1.691   3.140 -0.9055  0.9871 -1.7627
 1936WAT    EPW 7808   0.623   1.622   3.092 -0.3300 -0.3475 -0.2336
 1937WAT      O 7809   0.250   2.843   1.890  0.5467 -0.4759  0.0119
 1937WAT     H1 7810   0.330   2.796   1.913  1.7885  1.6770  0.3610
 1937WAT     H2 7811   0.243   2.912   1.956 -0.7010  0.3955 -0.9731
 1937WAT    EPW 7812   0.260   2.846   1.902  0.5459 -0.0770 -0.0719
 1938WAT      O 7813   3.312   3.174   1.681 -0.1352 -0.0607  0.5455
 1938WAT     H1 7814   3.351   3.089   1.702  0.5276  0.2410  0.5661
 1938WAT     H2 7815   3.220   3.155   1.666  0.3951 -1.2088 -1.8158
 1938WAT    EPW 7816   3.305   3.160   1.682  0.0222 -0.1723  0.2368
 1939WAT      O 7817   3.570   3.018   0.828 -0.0680  0.8375 -0.2680
 1939WAT     H1 7818   3.575   2.927   0.855 -0.5690  0.3185 -1.8052
 1939WAT     H2 7819   3.658   3.053   0.844  0.0679  0.1552  0.5192
 1939WAT    EPW 7820   3.583   3.011   0.834 -0.1161  0.6790 -0.3669
 1940WAT      O 7821   1.644   2.726   1.664 -0.4565 -0.5921  0.1652
 1940WAT     H1 7822   1.646   2.635   1.636 -0.6209 -0.5821  0.1195
 1940WAT     H2 7823   1.652   2.723   1.759  0.3528 -0.6147  0.0999
 1940WAT    EPW 7824   1.645   2.714   1.673 -0.3714 -0.5938  0.1505
 1941WAT      O 7825   0.681   2.843   3.605  0.3533  0.0449 -0.8528
 1941WAT     H1 7826   0.735   2.769   3.580 -0.9252 -1.1494 -0.1805
 1941WAT     H2 7827   0.695   2.853   3.699 -0.7405 -0.4272 -0.6228
 1941WAT    EPW 7828   0.690   2.835   3.614  0.0404 -0.1749 -0.7338
 1942WAT      O 7829   0.987   2.588   2.387 -0.2169  0.1314  0.4386
 1942WAT     H1 7830   1.068   2.566   2.433 -0.2537 -0.7179  0.1185
 1942WAT     H2 7831   1.013   2.594   2.295 -0.4711  0.1210  0.3658
 1942WAT    EPW 7832   1.001   2.586   2.381 -0.2553  0.0180  0.3867
 1943WAT      O 7833   1.194   2.782   2.765 -0.3600 -0.1164  0.1171
 1943WAT     H1 7834   1.099   2.786   2.759 -0.5884 -3.7478 -1.8017
 1943WAT     H2 7835   1.211   2.770   2.859 -1.5532  2.2554  0.7132
 1943WAT    EPW 7836   1.184   2.781   2.777 -0.5475 -0.2825 -0.0574
 1944WAT      O 7837   2.544   3.941   2.780  0.3498 -0.9385  0.2344
 1944WAT     H1 7838   2.617   4.000   2.795  0.6571 -1.0295 -0.8644
 1944WAT     H2 7839   2.471   3.981   2.827  0.9532 -0.5658  0.8861
 1944WAT    EPW 7840   2.544   3.954   2.788  0.4699 -0.9013  0.1755
 1945WAT      O 7841   3.341   2.885   3.335 -0.1087  0.0500 -0.0736
 1945WAT     H1 7842   3.276   2.921   3.397 -0.0234 -1.4799  0.9585
 1945WAT     H2 7843   3.288   2.848   3.265 -0.3116 -0.2429  0.2312
 1945WAT    EPW 7844   3.325   2.885   3.334 -0.1242 -0.1904  0.1028
 1946WAT      O 7845   1.894   1.961   1.699 -0.1060 -0.0583  0.1503
 1946WAT     H1 7846   1.933   1.929   1.617  0.7075  1.1889  0.0102
 1946WAT     H2 7847   1.969   1.994   1.749 -0.9028  2.1100  0.0204
 1946WAT    EPW 7848   1.909   1.961   1.695 -0.1038  0.3922  0.1147
 1947WAT      O 7849   3.379   3.548   0.340  0.1536  0.3596  0.5645
 1947WAT     H1 7850   3.342   3.618   0.394 -0.4252  1.0121 -0.6275
 1947WAT     H2 7851   3.340   3.468   0.374 -1.8549  0.9516 -0.1827
 1947WAT    EPW 7852   3.369   3.547   0.352 -0.1876  0.5238  0.3087
 1948WAT      O 7853   1.767   3.950   1.475 -0.8551 -0.1596  0.1321
 1948WAT     H1 7854   1.725   3.993   1.401  0.1764  0.4338 -0.1197
 1948WAT     H2 7855   1.809   3.873   1.437 -0.4679  0.0535  0.1248
 1948WAT    EPW 7856   1.767   3.945   1.460 -0.6680 -0.0533  0.0979
 1949WAT      O 7857   1.267   2.755   3.065 -0.1898  0.0874 -0.2042
 1949WAT     H1 7858   1.303   2.685   3.119 -1.4055 -0.5244 -0.1402
 1949WAT     H2 7859   1.176   2.762   3.094 -0.6089  0.3722 -1.5415
 1949WAT    EPW 7860   1.259   2.747   3.076 -0.4054  0.0443 -0.3722
 1950WAT      O 7861   3.582   1.739   1.800  0.3314  0.1436 -0.5042
 1950WAT     H1 7862   3.519   1.697   1.858  1.0946 -0.7920 -0.3302
 1950WAT     H2 7863   3.619   1.667   1.749  1.0837  0.7164 -0.7792
 1950WAT    EPW 7864   3.578   1.724   1.801  0.5313  0.0958 -0.5175
 1951WAT      O 7865   2.988   0.705   3.920  0.2879 -0.1560 -0.0251
 1951WAT     H1 7866   2.981   0.800   3.914 -0.1936 -0.0546  1.5553
 1951WAT     H2 7867   2.993   0.688   4.014 -0.6728 -1.7620 -0.2325
 1951WAT    EPW 7868   2.988   0.715   3.932  0.0977 -0.3545  0.1560
 1952WAT      O 7869   3.553   1.258   2.681  0.2343  0.3547 -0.0481
 1952WAT     H1 7870   3.533   1.301   2.597  1.0421 -0.1501 -0.5046
 1952WAT     H2 7871   3.546   1.165   2.662 -0.7107  0.2413  0.7451
 1952WAT    EPW 7872   3.549   1.252   2.667  0.2162  0.2732 -0.0037
 1953WAT      O 7873   1.693   4.183   3.044 -0.1815  0.0968 -0.0448
 1953WAT     H1 7874   1.683   4.092   3.015 -0.7386  0.0416  0.2863
 1953WAT     H2 7875   1.617   4.228   3.007 -0.2399  0.2908  0.3082
 1953WAT    EPW 7876   1.681   4.177   3.035 -0.2627  0.1151  0.0454
 1954WAT      O 7877   2.761   2.708   1.776 -0.1000 -0.3451  0.2642
 1954WAT     H1 7878   2.705   2.631   1.770  0.3374 -0.7146  0.7967
 1954WAT     H2 7879   2.713   2.777   1.730 -0.1659 -1.1219 -0.8925
 1954WAT    EPW 7880   2.747   2.707   1.769 -0.0510 -0.4963  0.1819
 1955WAT      O 7881   1.321   3.451   1.073 -0.1414  0.0941 -0.2008
 1955WAT     H1 7882   1.409   3.479   1.099  0.4280 -1.0572 -0.8308
 1955WAT     H2 7883   1.294   3.515   1.007  0.5367 -0.0088 -0.5745
 1955WAT    EPW 7884   1.329   3.463   1.068  0.0231 -0.0713 -0.3332
 1956WAT      O 7885   1.185   0.935   3.150 -0.2602 -0.2906  0.3564
 1956WAT     H1 7886   1.169   0.999   3.081 -0.3162 -1.3104 -0.6021
 1956WAT     H2 7887   1.100   0.893   3.164 -0.0672 -0.6531  0.4604
 1956WAT    EPW 7888   1.172   0.938   3.143 -0.2421 -0.4729  0.2437
 1957WAT      O 7889   0.367   2.484   0.358 -0.1164  0.1019  0.1677
 1957WAT     H1 7890   0.312   2.484   0.436 -1.1147  1.2646 -0.5073
 1957WAT     H2 7891   0.386   2.392   0.342  0.7810 -0.1278  2.2300
 1957WAT    EPW 7892   0.363   2.472   0.366 -0.1297  0.2249  0.3507
 1958WAT      O 7893   2.719   1.887   0.941 -0.4698 -0.3448  0.7229
 1958WAT     H1 7894   2.706   1.976   0.908 -1.2368 -1.0722 -1.1058
 1958WAT     H2 7895   2.630   1.853   0.953 -0.1954 -1.0943  0.6923
 1958WAT    EPW 7896   2.706   1.894   0.938 -0.5348 -0.5396  0.4777
 1959WAT      O 7897   3.248   3.012   0.847 -0.0743  0.1476 -1.0087
 1959WAT     H1 7898   3.280   2.924   0.866  0.3174  0.4358 -0.3023
 1959WAT     H2 7899   3.323   3.057   0.809 -0.2968  0.1615 -1.4434
 1959WAT    EPW 7900   3.262   3.006   0.844 -0.0520  0.1874 -0.9729
 1960WAT      O 7901   2.336   0.193   2.652 -0.7606 -0.1198 -0.0944
 1960WAT     H1 7902   2.254   0.146   2.669  0.2445 -2.5710 -1.5850
 1960WAT     H2 7903   2.321   0.237   2.569 -1.0307  0.6764  0.3604
 1960WAT    EPW 7904   2.323   0.193   2.644 -0.6636 -0.3381 -0.2310
 1961WAT      O 7905   2.965   3.081   3.726 -0.7228  0.0320  0.0132
 1961WAT     H1 7906   2.929   3.165   3.697 -1.1234  0.0395  0.5215
 1961WAT     H2 7907   3.049   3.104   3.766 -0.4622  0.0947 -0.5625
 1961WAT    EPW 7908   2.971   3.095   3.727 -0.7413  0.0413  0.0043
 1962WAT      O 7909   0.127   2.436   2.468 -0.0414  0.3065  0.2334
 1962WAT     H1 7910   0.034   2.415   2.455  0.2346 -0.3977 -0.7309
 1962WAT     H2 7911   0.129   2.532   2.477 -0.9815  0.2349  1.5067
 1962WAT    EPW 7912   0.115   2.446   2.467 -0.1290  0.2042  0.2742
 1963WAT      O 7913   2.155   2.135   2.159  0.0104  0.7645 -0.0099
 1963WAT     H1 7914   2.237   2.181   2.173  0.2647  0.4181 -0.3294
 1963WAT     H2 7915   2.127   2.162   2.071  0.9169 -0.8018 -0.8215
 1963WAT    EPW 7916   2.162   2.144   2.149  0.1635  0.5122 -0.1591
 1964WAT      O 7917   1.212   3.310   1.662 -0.2283  0.6222 -0.0156
 1964WAT     H1 7918   1.154   3.256   1.715  1.2121  0.9818  2.0384
 1964WAT     H2 7919   1.178   3.399   1.673  0.5177  0.7978  0.9721
 1964WAT    EPW 7920   1.200   3.315   1.670  0.0601  0.6928  0.3856
 1965WAT      O 7921   1.133   1.025   3.516  0.3026 -0.2739  0.3061
 1965WAT     H1 7922   1.185   1.091   3.470  0.1618  0.3926  1.0931
 1965WAT     H2 7923   1.060   1.074   3.554  1.6017 -0.3676  3.1871
 1965WAT    EPW 7924   1.130   1.040   3.515  0.4554 -0.1983  0.7899
 1966WAT      O 7925   0.759   1.847   3.238  0.6222  0.0680  0.0035
 1966WAT     H1 7926   0.673   1.886   3.222  1.6918  2.0342 -1.3991
 1966WAT     H2 7927   0.789   1.887   3.319  0.5221 -0.0844  0.1171
 1966WAT    EPW 7928   0.752   1.857   3.246  0.7501  0.3072 -0.1665
 1967WAT      O 7929   0.608   3.068   0.431  0.2183  0.5251  0.4762
 1967WAT     H1 7930   0.601   3.098   0.341  0.7383 -0.2592  0.1590
 1967WAT     H2 7931   0.700   3.085   0.455  0.8488 -1.7561 -0.0953
 1967WAT    EPW 7932   0.620   3.074   0.423  0.3701  0.1208  0.3590
 1968WAT      O 7933   0.847   0.070   2.348 -0.2038 -0.1365 -0.1728
 1968WAT     H1 7934   0.771   0.026   2.310  0.1607  0.5622 -1.7898
 1968WAT     H2 7935   0.894   0.000   2.394 -0.0909 -1.2784 -1.9377
 1968WAT    EPW 7936   0.843   0.055   2.349 -0.1408 -0.1950 -0.6188
 1969WAT      O 7937   2.699   3.468   2.664  0.0765  0.4293 -0.2663
 1969WAT     H1 7938   2.770   3.501   2.719 -1.6841  1.0442  1.7710
 1969WAT     H2 7939   2.670   3.544   2.613 -0.1061  0.5690  0.0421
 1969WAT    EPW 7940   2.704   3.482   2.665 -0.1798  0.5288  0.0431
 1970WAT      O 7941   0.885   3.854   3.891 -0.0922  0.0794 -0.1865
 1970WAT     H1 7942   0.923   3.937   3.861  0.8487 -0.1452  0.3390
 1970WAT     H2 7943   0.792   3.873   3.902  0.0846  1.0281 -0.2032
 1970WAT    EPW 7944   0.878   3.868   3.888  0.0552  0.1749 -0.1194
 1971WAT      O 7945   2.031   1.411   0.712 -0.0954  0.2738  0.1339
 1971WAT     H1 7946   2.107   1.422   0.654 -0.7840 -0.4538 -0.9589
 1971WAT     H2 7947   2.008   1.319   0.704 -1.3119  0.5555  0.1574
 1971WAT    EPW 7948   2.038   1.400   0.703 -0.3467  0.2150 -0.0071
 1972WAT      O 7949   0.385   2.795   3.574 -0.3940  0.1395 -0.3330
 1972WAT     H1 7950   0.478   2.797   3.599 -0.1599 -1.6354 -0.9259
 1972WAT     H2 7951   0.363   2.702   3.572 -2.8487  0.5498  2.0622
 1972WAT    EPW 7952   0.395   2.783   3.577 -0.6869 -0.0405 -0.0953
 1973WAT      O 7953   0.441   2.378   0.737  0.1328 -0.1180 -0.3263
 1973WAT     H1 7954   0.377   2.449   0.734 -0.7616 -0.9037 -0.5564
 1973WAT     H2 7955   0.429   2.339   0.824 -0.8285 -1.2393 -0.9234
 1973WAT    EPW 7956   0.431   2.382   0.748 -0.1119 -0.3695 -0.4354
 1974WAT      O 7957   2.136   0.456   0.413 -0.2494  0.4470 -0.3673
 1974WAT     H1 7958   2.064   0.416   0.462 -0.7738 -1.2662 -2.3433
 1974WAT     H2 7959   2.096   0.484   0.331  1.2869 -0.4633 -1.4875
 1974WAT    EPW 7960   2.121   0.454   0.408 -0.1159  0.1010 -0.7757
 1975WAT      O 7961   2.566   0.649   3.534  0.0045 -0.2735 -0.4058
 1975WAT     H1 7962   2.616   0.621   3.457  1.2862  0.0108  0.2944
 1975WAT     H2 7963   2.613   0.611   3.609 -1.3875 -0.7977  0.2429
 1975WAT    EPW 7964   2.579   0.640   3.534 -0.0100 -0.3051 -0.2279
 1976WAT      O 7965   1.996   1.695   0.829 -0.4376  0.1913  0.4244
 1976WAT     H1 7966   2.086   1.721   0.852 -1.3174  1.2201  3.1560
 1976WAT     H2 7967   2.007   1.633   0.758  2.4999 -0.1905  1.0626
 1976WAT    EPW 7968   2.009   1.691   0.823 -0.1662  0.2767  0.8689
 1977WAT      O 7969   2.259   1.831   3.299 -0.2869 -0.1680  0.2252
 1977WAT     H1 7970   2.321   1.853   3.230  0.8631  1.4309  1.6976
 1977WAT     H2 7971   2.198   1.905   3.301 -1.3763 -1.0247 -0.2035
 1977WAT    EPW 7972   2.259   1.843   3.290 -0.2789 -0.0701  0.3628
 1978WAT      O 7973   0.740   3.496   1.714  0.0461  0.2497  0.1358
 1978WAT     H1 7974   0.662   3.479   1.662  0.4320  1.1134 -0.7564
 1978WAT     H2 7975   0.708   3.504   1.804 -0.9956  1.3159 -0.3088
 1978WAT    EPW 7976   0.726   3.495   1.719 -0.0404  0.5042 -0.0405
 1979WAT      O 7977   0.855   0.392   1.698 -0.1181  0.1181 -0.0171
 1979WAT     H1 7978   0.779   0.337   1.711  0.4115 -0.1312  2.5795
 1979WAT     H2 7979   0.920   0.359   1.760  1.2744  1.7736 -0.4995
 1979WAT    EPW 7980   0.854   0.381   1.708  0.1354  0.3036  0.2617
 1980WAT      O 7981   3.442   1.999   1.405  0.7263  0.1523 -0.0036
 1980WAT     H1 7982   3.502   1.942   1.358  0.3900  0.3586 -0.6986
 1980WAT     H2 7983   3.355   1.963   1.387  0.5322  0.7030 -0.2045
 1980WAT    EPW 7984   3.438   1.987   1.397  0.6564  0.2521 -0.1218
 1981WAT      O 7985   1.517   1.165   2.554 -0.0473  0.3345  0.1455
 1981WAT     H1 7986   1.552   1.078   2.574 -1.6521 -0.2641  0.5380
 1981WAT     H2 7987   1.548   1.184   2.466  0.0304 -0.7956 -0.0862
 1981WAT    EPW 7988   1.526   1.156   2.545 -0.2487  0.1065  0.1667
 1982WAT      O 7989   2.178   3.319   3.303 -0.2487 -0.0146  1.0263
 1982WAT     H1 7990   2.174   3.395   3.362 -0.3769 -0.3224  1.4260
 1982WAT     H2 7991   2.124   3.253   3.347 -0.1871 -0.3164  0.6525
 1982WAT    EPW 7992   2.170   3.321   3.317 -0.2575 -0.0950  1.0297
 1983WAT      O 7993   2.895   4.134   3.710 -0.1791 -0.1668  0.2394
 1983WAT     H1 7994   2.922   4.223   3.686  0.7378 -0.5678 -0.2645
 1983WAT     H2 7995   2.855   4.144   3.797 -0.0370  0.7273  0.2145
 1983WAT    EPW 7996   2.893   4.147   3.719 -0.0394 -0.1017  0.1696
 1984WAT      O 7997   3.316   1.596   3.136 -0.7620 -0.3940  0.3531
 1984WAT     H1 7998   3.378   1.563   3.201 -0.0385  1.8644  0.9017
 1984WAT     H2 7999   3.366   1.598   3.054 -1.7994 -3.6452 -0.4808
 1984WAT    EPW 8000   3.331   1.592   3.134 -0.8034 -0.5250  0.3155
 1985WAT      O 8001   2.237   3.705   2.848 -0.3537  0.0442 -0.0161
 1985WAT     H1 8002   2.313   3.648   2.860 -0.1967  0.1158 -0.6324
 1985WAT     H2 8003   2.164   3.644   2.835  0.1483 -0.0905 -2.8343
 1985WAT    EPW 8004   2.237   3.689   2.848 -0.2668  0.0359 -0.4691
 1986WAT      O 8005   2.527   3.639   1.430  0.4545 -0.1962  0.4379
 1986WAT     H1 8006   2.503   3.547   1.436  0.1213 -0.1219  0.2511
 1986WAT     H2 8007   2.529   3.669   1.521 -0.2014 -0.1935  0.4563
 1986WAT    EPW 8008   2.524   3.631   1.443  0.3240 -0.1861  0.4157
 1987WAT      O 8009   2.053   2.412   1.297 -0.6020  0.0314  0.2133
 1987WAT     H1 8010   2.070   2.442   1.207 -1.5219  0.0722  0.0403
 1987WAT     H2 8011   2.008   2.328   1.286 -3.3981  1.3891  0.5208
 1987WAT    EPW 8012   2.049   2.405   1.284 -1.0921  0.2158  0.2310
 1988WAT      O 8013   2.541   2.254   0.493  0.3951 -0.0846  0.1516
 1988WAT     H1 8014   2.616   2.301   0.456  0.0637 -1.4086 -2.4802
 1988WAT     H2 8015   2.476   2.255   0.422 -0.6393 -2.1048  1.0141
 1988WAT    EPW 8016   2.542   2.261   0.479  0.2150 -0.5257 -0.0817
 1989WAT      O 8017   0.985   1.226   1.695  0.0051 -0.2956  0.0877
 1989WAT     H1 8018   1.074   1.220   1.661  0.0255 -2.0382  0.3362
 1989WAT     H2 8019   0.968   1.320   1.702  1.2695  0.0725 -1.3512
 1989WAT    EPW 8020   0.994   1.237   1.692  0.1746 -0.4769 -0.0693
 1990WAT      O 8021   0.434   0.042   1.821  0.4753  0.3822 -0.1179
 1990WAT     H1 8022   0.413  -0.002   1.739 -1.5049  0.9078  0.0542
 1990WAT     H2 8023   0.521   0.009   1.845  1.1803  0.3537 -2.4927
 1990WAT    EPW 8024   0.443   0.032   1.814  0.3071  0.4478 -0.4084
 1991WAT      O 8025   2.273   0.596   2.147  0.3566 -0.2124 -0.0957
 1991WAT     H1 8026   2.345   0.635   2.196  1.2696 -0.2558 -1.3508
 1991WAT     H2 8027   2.315   0.537   2.085 -0.6619  0.5081 -1.5453
 1991WAT    EPW 8028   2.288   0.594   2.145  0.3427 -0.1231 -0.4524
 1992WAT      O 8029   3.255   3.400   1.452  0.3928  0.5640 -0.2790
 1992WAT     H1 8030   3.164   3.428   1.445  0.1680  0.1949  0.9348
 1992WAT     H2 8031   3.281   3.380   1.362 -1.2653 -0.9398 -0.4735
 1992WAT    EPW 8032   3.246   3.401   1.439  0.1445  0.3170 -0.1446
 1993WAT      O 8033   2.871   2.917   3.167 -0.1501  0.0553 -0.2010
 1993WAT     H1 8034   2.877   3.003   3.208 -0.3661  0.0731 -0.2056
 1993WAT     H2 8035   2.826   2.933   3.084 -0.5566 -0.1207 -0.0181
 1993WAT    EPW 8036   2.866   2.930   3.162 -0.2322  0.0344 -0.1775
 1994WAT      O 8037   2.579   0.126   0.757 -0.2145 -0.2972  0.1871
 1994WAT     H1 8038   2.627   0.058   0.710  0.8860  0.0503  0.7649
 1994WAT     H2 8039   2.616   0.208   0.725 -2.6163  0.1565 -1.6809
 1994WAT    EPW 8040   2.590   0.128   0.747 -0.3862 -0.1915  0.0169
 1995WAT      O 8041   3.169   2.831   2.489 -0.1204  0.7077 -0.0697
 1995WAT     H1 8042   3.223   2.772   2.436  1.2174  0.6666  1.2929
 1995WAT     H2 8043   3.227   2.901   2.516 -1.2601  1.7381 -0.1950
 1995WAT    EPW 8044   3.184   2.832   2.486 -0.0943  0.8382  0.0935
 1996WAT      O 8045   2.177   2.082   1.576  0.2660  0.0734  0.2033
 1996WAT     H1 8046   2.214   2.157   1.529 -0.5787  0.1993 -0.2897
 1996WAT     H2 8047   2.172   2.013   1.510 -0.5380  0.1205  0.2049
 1996WAT    EPW 8048   2.181   2.083   1.561  0.0485  0.0962  0.1385
 1997WAT      O 8049   0.374   1.470   2.403 -0.0721 -0.2098  0.1476
 1997WAT     H1 8050   0.295   1.426   2.434  1.6259 -2.5567  1.4181
 1997WAT     H2 8051   0.357   1.486   2.310 -0.9349 -3.4127 -0.3607
 1997WAT    EPW 8052   0.361   1.466   2.395  0.0381 -0.9418  0.2481
 1998WAT      O 8053   0.495   2.192   2.211  0.0669  0.1764 -0.0439
 1998WAT     H1 8054   0.519   2.101   2.231  1.0744  0.4742  0.1785
 1998WAT     H2 8055   0.578   2.233   2.187 -0.7248  0.4296 -2.6303
 1998WAT    EPW 8056   0.509   2.185   2.210  0.0953  0.2491 -0.3557
 1999WAT      O 8057   1.449   3.552   1.404 -0.6005  0.3276 -0.0545
 1999WAT     H1 8058   1.507   3.559   1.479 -0.9456  0.1242  0.2340
 1999WAT     H2 8059   1.454   3.460   1.378 -2.2795 -0.1631  1.1872
 1999WAT    EPW 8060   1.458   3.541   1.410 -0.8675  0.2361  0.1473
 2000WAT      O 8061   2.335   3.678   0.685  0.0195 -0.2491  0.4927
 2000WAT     H1 8062   2.369   3.601   0.732  1.2622  0.8041  1.3848
 2000WAT     H2 8063   2.351   3.657   0.593 -1.8399 -2.0544  0.5010
 2000WAT    EPW 8064   2.342   3.665   0.679 -0.0618 -0.3483  0.6114
 2001WAT      O 8065   1.807   0.718   0.205 -0.4184  0.7325  0.6705
 2001WAT     H1 8066   1.730   0.671   0.176  0.7149 -1.6943  1.3395
 2001WAT     H2 8067   1.800   0.805   0.164 -2.6420  0.0345 -0.5540
 2001WAT    EPW 8068   1.796   0.723   0.196 -0.5622  0.3204  0.5973
 2002WAT      O 8069   1.280   3.547   0.308 -0.4496  0.3922 -0.1811
 2002WAT     H1 8070   1.233   3.467   0.288 -1.8152  1.0083  0.4709
 2002WAT     H2 8071   1.288   3.547   0.404  0.7213  0.4041 -0.2584
 2002WAT    EPW 8072   1.275   3.537   0.318 -0.4752  0.4751 -0.1053
 2003WAT      O 8073   1.539   2.871   1.344  0.1710  0.0630 -0.5363
 2003WAT     H1 8074   1.631   2.849   1.358 -0.0995 -0.1781  0.9417
 2003WAT     H2 8075   1.490   2.794   1.375 -0.5805  0.7714  0.0922
 2003WAT    EPW 8076   1.544   2.858   1.350  0.0362  0.1246 -0.2585
 2004WAT      O 8077   1.484   3.723   0.534  0.1968 -0.0530  0.0172
 2004WAT     H1 8078   1.454   3.634   0.552  1.7930 -0.3916  1.3083
 2004WAT     H2 8079   1.437   3.777   0.598 -0.7715  0.0441 -0.7661
 2004WAT    EPW 8080   1.474   3.718   0.545  0.2796 -0.0849  0.0842
 2005WAT      O 8081   2.923   3.673   3.222 -0.3534  0.1319  0.3410
 2005WAT     H1 8082   3.017   3.655   3.218 -0.4167  0.0020 -1.0665
 2005WAT     H2 8083   2.916   3.766   3.200 -0.6585 -0.2491 -1.2555
 2005WAT    EPW 8084   2.935   3.683   3.219 -0.4020  0.0645 -0.0552
 2006WAT      O 8085   1.443   0.889   1.875  0.1381  0.1776  0.0009
 2006WAT     H1 8086   1.434   0.984   1.874  1.3335  0.3195  0.6751
 2006WAT     H2 8087   1.380   0.860   1.941  0.0469  0.5339  0.0731
 2006WAT    EPW 8088   1.433   0.898   1.884  0.2837  0.2433  0.0994
 2007WAT      O 8089   1.934   0.894   0.821  0.4332  0.0263 -0.1261
 2007WAT     H1 8090   1.995   0.822   0.801  0.2717 -0.2870  0.4842
 2007WAT     H2 8091   1.861   0.880   0.761 -0.0556 -0.9139  0.6686
 2007WAT    EPW 8092   1.933   0.882   0.810  0.3474 -0.1390  0.0592
 2008WAT      O 8093   3.320   2.304   0.230 -0.5467 -0.2095  0.4206
 2008WAT     H1 8094   3.279   2.381   0.191  0.0925  0.9474  1.9565
 2008WAT     H2 8095   3.348   2.251   0.155 -1.9381  0.5280 -0.6522
 2008WAT    EPW 8096   3.318   2.307   0.215 -0.6459  0.0403  0.4817
 2009WAT      O 8097   3.388   0.994   2.714 -0.4328  0.4002 -0.1671
 2009WAT     H1 8098   3.419   0.977   2.803 -0.9408  0.1555 -0.0310
 2009WAT     H2 8099   3.401   0.912   2.667  0.1594  0.6363 -0.4156
 2009WAT    EPW 8100   3.394   0.981   2.719 -0.4217  0.3991 -0.1819
 2010WAT      O 8101   0.240   0.160   1.979  0.3454 -0.5155  0.5657
 2010WAT     H1 8102   0.299   0.194   2.046  0.6565 -0.4371  0.2531
 2010WAT     H2 8103   0.297   0.114   1.918  0.4996  1.9109 -1.2784
 2010WAT    EPW 8104   0.255   0.159   1.980  0.4068 -0.1851  0.2813
 2011WAT      O 8105   3.379   1.517   0.664 -0.1724  0.0482  0.2783
 2011WAT     H1 8106   3.398   1.610   0.649 -1.4266  0.3018  0.1754
 2011WAT     H2 8107   3.465   1.475   0.665  0.3055  0.8546 -2.0054
 2011WAT    EPW 8108   3.393   1.524   0.662 -0.2748  0.1880 -0.0365
 2012WAT      O 8109   0.061   0.294   2.347 -0.5613 -0.2877  0.0481
 2012WAT     H1 8110   0.003   0.336   2.283 -0.3301 -0.1530 -0.0722
 2012WAT     H2 8111   0.039   0.201   2.342  1.4968 -0.7270 -2.3566
 2012WAT    EPW 8112   0.050   0.288   2.338 -0.2594 -0.3278 -0.2849
 2013WAT      O 8113   3.635   2.652   3.916  0.0257  0.1061  0.0710
 2013WAT     H1 8114   3.654   2.745   3.930  0.5425  0.1522 -0.7988
 2013WAT     H2 8115   3.546   2.651   3.882 -0.1457  0.2422  0.5113
 2013WAT    EPW 8116   3.626   2.664   3.913  0.0712  0.1301  0.0143
 2014WAT      O 8117   2.002   2.117   1.189  0.4124 -0.6862 -0.1307
 2014WAT     H1 8118   1.907   2.103   1.193  0.6483 -2.4243  0.2667
 2014WAT     H2 8119   2.036   2.073   1.267  1.4687  0.8588  0.3135
 2014WAT    EPW 8120   1.994   2.109   1.200  0.5828 -0.7117 -0.0197
 2015WAT      O 8121   3.368   3.602   2.674 -0.0795  0.4026 -0.5052
 2015WAT     H1 8122   3.305   3.644   2.615 -1.6019  1.2376  1.6006
 2015WAT     H2 8123   3.355   3.508   2.658 -0.9685  0.5953 -1.0219
 2015WAT    EPW 8124   3.358   3.595   2.664 -0.3976  0.5381 -0.2956
 2016WAT      O 8125   2.910   1.579   2.815  0.2302  0.2611  0.1636
 2016WAT     H1 8126   2.832   1.569   2.869  0.8382  0.3221  1.0660
 2016WAT     H2 8127   2.877   1.613   2.731 -0.6043  1.2585  0.8712
 2016WAT    EPW 8128   2.895   1.582   2.811  0.2004  0.4007  0.3760
 2017WAT      O 8129   1.223   2.547   2.552  0.0599 -0.1546 -0.4834
 2017WAT     H1 8130   1.209   2.467   2.602  1.1845 -0.1738 -0.1710
 2017WAT     H2 8131   1.197   2.618   2.611  1.1540 -0.1886  0.0505
 2017WAT    EPW 8132   1.218   2.546   2.566  0.3525 -0.1616 -0.3717
 2018WAT      O 8133   3.472   3.133   3.787 -0.2154  0.0298 -0.1438
 2018WAT     H1 8134   3.444   3.188   3.714 -1.1279 -0.3619 -0.1076
 2018WAT     H2 8135   3.492   3.194   3.857  1.0048  0.4324 -0.8218
 2018WAT    EPW 8136   3.471   3.148   3.786 -0.1748  0.0312 -0.2285
 2019WAT      O 8137   3.697   2.192   1.106  0.0191  0.1978 -0.4090
 2019WAT     H1 8138   3.710   2.194   1.201  3.6320 -1.2656 -0.7387
 2019WAT     H2 8139   3.607   2.161   1.095  0.4417 -2.6652  2.5959
 2019WAT    EPW 8140   3.687   2.188   1.117  0.5514 -0.3728 -0.0561
 2020WAT      O 8141   2.029   0.575   1.996  0.0108  0.7869 -0.0442
 2020WAT     H1 8142   2.124   0.578   2.006  0.0851 -0.9145  0.0829
 2020WAT     H2 8143   2.012   0.623   1.915  1.1117  0.0718 -0.7258
 2020WAT    EPW 8144   2.040   0.582   1.987  0.1658  0.4682 -0.1173
 2021WAT      O 8145   3.628   3.835   3.667 -0.1838  0.0524  0.2385
 2021WAT     H1 8146   3.698   3.799   3.722  0.5728 -0.0973 -0.7916
 2021WAT     H2 8147   3.674   3.872   3.591 -1.0511  1.8546  0.5257
 2021WAT    EPW 8148   3.643   3.835   3.664 -0.1984  0.2704  0.1405
 2022WAT      O 8149   1.972   0.994   0.456 -0.5368 -0.7259  0.1726
 2022WAT     H1 8150   1.993   0.901   0.465  1.5948 -0.3100 -0.0620
 2022WAT     H2 8151   2.027   1.038   0.521 -1.0346  0.4295 -0.1576
 2022WAT    EPW 8152   1.982   0.988   0.466 -0.3213 -0.5187  0.0981
 2023WAT      O 8153   0.258   2.940   3.791  0.0111 -0.0615  0.0418
 2023WAT     H1 8154   0.166   2.959   3.776 -0.0038 -1.0882 -1.3759
 2023WAT     H2 8155   0.291   2.910   3.706  1.8098  0.8528  0.3515
 2023WAT    EPW 8156   0.250   2.939   3.778  0.2463 -0.0764 -0.1043
 2024WAT      O 8157   1.125   2.407   3.906  0.0818 -0.7550 -0.4680
 2024WAT     H1 8158   1.091   2.407   3.817 -0.1387 -0.1870 -0.3862
 2024WAT     H2 8159   1.174   2.324   3.913  0.1550 -0.7716 -1.1321
 2024WAT    EPW 8160   1.127   2.396   3.895  0.0623 -0.6823 -0.5448
 2025WAT      O 8161   0.806   1.275   3.805  0.5490 -0.3176 -0.3720
 2025WAT     H1 8162   0.722   1.241   3.837 -0.1527  1.1542 -0.5658
 2025WAT     H2 8163   0.848   1.312   3.882  1.9116 -2.6685  0.1084
 2025WAT    EPW 8164   0.800   1.275   3.819  0.6362 -0.4336 -0.3342
 2026WAT      O 8165   0.123   2.471   0.550 -0.0531 -0.2235  0.3427
 2026WAT     H1 8166   0.088   2.423   0.626 -1.1725  1.2249  0.7865
 2026WAT     H2 8167   0.087   2.424   0.474 -1.5487  0.1601  0.7811
 2026WAT    EPW 8168   0.113   2.458   0.550 -0.3980  0.0181  0.4591
 2027WAT      O 8169   2.485   0.949   3.019  0.2029  0.0872 -0.1053
 2027WAT     H1 8170   2.437   0.870   3.042  0.2967 -0.0004 -0.2108
 2027WAT     H2 8171   2.520   0.932   2.932 -0.7999  0.7181 -0.6541
 2027WAT    EPW 8172   2.483   0.937   3.010  0.0830  0.1588 -0.1916
 2028WAT      O 8173   3.586   3.082   3.383  0.0056 -0.1511 -0.5978
 2028WAT     H1 8174   3.586   3.087   3.288 -0.4692  2.2768 -0.5437
 2028WAT     H2 8175   3.501   3.045   3.406 -0.3444  0.3277 -1.1102
 2028WAT    EPW 8176   3.575   3.078   3.374 -0.1032  0.2323 -0.6583
 2029WAT      O 8177   1.187   2.932   0.274 -0.0757  0.1373  0.3538
 2029WAT     H1 8178   1.230   3.015   0.295  1.5441 -0.4733 -0.3883
 2029WAT     H2 8179   1.164   2.941   0.181  0.9998 -0.5835 -0.0024
 2029WAT    EPW 8180   1.190   2.944   0.264  0.2798 -0.0383  0.2090
 2030WAT      O 8181   0.804   3.330   2.932  0.5848  0.1526  0.3317
 2030WAT     H1 8182   0.752   3.353   2.855  2.6090 -0.1850 -1.2466
 2030WAT     H2 8183   0.765   3.248   2.963 -0.2491  0.2593 -0.3885
 2030WAT    EPW 8184   0.792   3.322   2.926  0.7418  0.1222  0.0286
   3.70252   4.27083   4.01206
