;
;   File topol.top  was generated
;   By user: sompriya (1002)
;   On host:raylab2-Precision-5860-Tower 
;   At date:Tue. December  2 15:17:14 2024 
;
;   This is a standalone topology file
;
;   Created by:
;   ParmEd:       convert.py, VERSION4.3.0 
;   Executable:   convert.py
;   Library dir:  /usr/local/gromacs/share/gromacs/top
;   Command line:
;     convert.py
;

[ defaults ]
; nbfunc        comb-rule       gen-pairs       fudgeLJ fudgeQQ
1               2               yes             0.5          0.83333333  

[ atomtypes ]
; name    at.num    mass    charge ptype  sigma      epsilon
HO             1   1.008000  0.00000000  A              0              0
OH             8  16.000000  0.00000000  A     0.30664734      0.8803136
CI             6  12.010000  0.00000000  A     0.33996695      0.4577296
H1             1   1.008000  0.00000000  A      0.2471353      0.0656888
CT             6  12.010000  0.00000000  A     0.33996695      0.4577296
OS             8  16.000000  0.00000000  A     0.30000123        0.71128
H2             1   1.008000  0.00000000  A     0.22931733      0.0656888
N*             7  14.010000  0.00000000  A     0.33507057        0.71128
CS             6  12.010000  0.00000000  A      0.3284993      0.2250992
H4             1   1.008000  0.00000000  A     0.25105526        0.06276
HA             1   1.008000  0.00000000  A     0.25996425        0.06276
C              6  12.010000  0.00000000  A      0.3284993      0.2250992
O              8  16.000000  0.00000000  A     0.29599219        0.87864
NA             7  14.010000  0.00000000  A     0.33507057        0.71128
H              1   1.008000  0.00000000  A              0              0
OR             8  16.000000  0.00000000  A     0.31569887        0.71128
P             15  30.970000  0.00000000  A     0.37417746         0.8368
OQ             8  16.000000  0.00000000  A     0.31168983        0.87864
Na+           11  22.990000  0.00000000  A     0.24299263      0.1962296
Cl-           17  35.450000  0.00000000  A     0.40446802         0.6276
OW             8  16.000000  0.00000000  A     0.31649997     0.93654656
HW             1   1.008000  0.00000000  A              0              0
EP             0   0.000000  0.00000000  A              0              0


[ moleculetype ]
; Name            nrexcl
system1          3

[ atoms ]
;   nr       type  resnr residue  atom   cgnr    charge       mass  typeB    chargeB      massB
; residue    1 U5 rtp U5 q -0.3
    1         HO      1     U5   HO5'      1 0.42950000   1.008000   ; qtot 0.429500
    2         OH      1     U5    O5'      2 -0.62230000  16.000000   ; qtot -0.192800
    3         CI      1     U5    C5'      3 0.05580000  12.010000   ; qtot -0.137000
    4         H1      1     U5    H5'      4 0.06790000   1.008000   ; qtot -0.069100
    5         H1      1     U5   H5''      5 0.06790000   1.008000   ; qtot -0.001200
    6         CT      1     U5    C4'      6 0.10650000  12.010000   ; qtot 0.105300
    7         H1      1     U5    H4'      7 0.11740000   1.008000   ; qtot 0.222700
    8         OS      1     U5    O4'      8 -0.35480000  16.000000   ; qtot -0.132100
    9         CT      1     U5    C1'      9 0.06740000  12.010000   ; qtot -0.064700
   10         H2      1     U5    H1'     10 0.18240000   1.008000   ; qtot 0.117700
   11         N*      1     U5     N1     11 0.04180000  14.010000   ; qtot 0.159500
   12         CS      1     U5     C6     12 -0.11260000  12.010000   ; qtot 0.046900
   13         H4      1     U5     H6     13 0.21880000   1.008000   ; qtot 0.265700
   14         CS      1     U5     C5     14 -0.36350000  12.010000   ; qtot -0.097800
   15         HA      1     U5     H5     15 0.18110000   1.008000   ; qtot 0.083300
   16          C      1     U5     C4     16 0.59520000  12.010000   ; qtot 0.678500
   17          O      1     U5     O4     17 -0.57610000  16.000000   ; qtot 0.102400
   18         NA      1     U5     N3     18 -0.39130000  14.010000   ; qtot -0.288900
   19          H      1     U5     H3     19 0.35180000   1.008000   ; qtot 0.062900
   20          C      1     U5     C2     20 0.46870000  12.010000   ; qtot 0.531600
   21          O      1     U5     O2     21 -0.54770000  16.000000   ; qtot -0.016100
   22         CT      1     U5    C3'     22 0.20220000  12.010000   ; qtot 0.186100
   23         H1      1     U5    H3'     23 0.06150000   1.008000   ; qtot 0.247600
   24         CT      1     U5    C2'     24 0.06700000  12.010000   ; qtot 0.314600
   25         H1      1     U5    H2'     25 0.09720000   1.008000   ; qtot 0.411800
   26         OH      1     U5    O2'     26 -0.61390000  16.000000   ; qtot -0.202100
   27         HO      1     U5   HO2'     27 0.41860000   1.008000   ; qtot 0.216500
   28         OR      1     U5    O3'     28 -0.52460000  16.000000   ; qtot -0.308100
; residue    2 U rtp U q -1.0
   29          P      2      U      P     29 1.16620000  30.970000   ; qtot 0.858100
   30         OQ      2      U    OP1     30 -0.77600000  16.000000   ; qtot 0.082100
   31         OQ      2      U    OP2     31 -0.77600000  16.000000   ; qtot -0.693900
   32         OR      2      U    O5'     32 -0.49890000  16.000000   ; qtot -1.192800
   33         CI      2      U    C5'     33 0.05580000  12.010000   ; qtot -1.137000
   34         H1      2      U    H5'     34 0.06790000   1.008000   ; qtot -1.069100
   35         H1      2      U   H5''     35 0.06790000   1.008000   ; qtot -1.001200
   36         CT      2      U    C4'     36 0.10650000  12.010000   ; qtot -0.894700
   37         H1      2      U    H4'     37 0.11740000   1.008000   ; qtot -0.777300
   38         OS      2      U    O4'     38 -0.35480000  16.000000   ; qtot -1.132100
   39         CT      2      U    C1'     39 0.06740000  12.010000   ; qtot -1.064700
   40         H2      2      U    H1'     40 0.18240000   1.008000   ; qtot -0.882300
   41         N*      2      U     N1     41 0.04180000  14.010000   ; qtot -0.840500
   42         CS      2      U     C6     42 -0.11260000  12.010000   ; qtot -0.953100
   43         H4      2      U     H6     43 0.21880000   1.008000   ; qtot -0.734300
   44         CS      2      U     C5     44 -0.36350000  12.010000   ; qtot -1.097800
   45         HA      2      U     H5     45 0.18110000   1.008000   ; qtot -0.916700
   46          C      2      U     C4     46 0.59520000  12.010000   ; qtot -0.321500
   47          O      2      U     O4     47 -0.57610000  16.000000   ; qtot -0.897600
   48         NA      2      U     N3     48 -0.39130000  14.010000   ; qtot -1.288900
   49          H      2      U     H3     49 0.35180000   1.008000   ; qtot -0.937100
   50          C      2      U     C2     50 0.46870000  12.010000   ; qtot -0.468400
   51          O      2      U     O2     51 -0.54770000  16.000000   ; qtot -1.016100
   52         CT      2      U    C3'     52 0.20220000  12.010000   ; qtot -0.813900
   53         H1      2      U    H3'     53 0.06150000   1.008000   ; qtot -0.752400
   54         CT      2      U    C2'     54 0.06700000  12.010000   ; qtot -0.685400
   55         H1      2      U    H2'     55 0.09720000   1.008000   ; qtot -0.588200
   56         OH      2      U    O2'     56 -0.61390000  16.000000   ; qtot -1.202100
   57         HO      2      U   HO2'     57 0.41860000   1.008000   ; qtot -0.783500
   58         OR      2      U    O3'     58 -0.52460000  16.000000   ; qtot -1.308100
; residue    3 U rtp U q -1.0
   59          P      3      U      P     59 1.16620000  30.970000   ; qtot -0.141900
   60         OQ      3      U    OP1     60 -0.77600000  16.000000   ; qtot -0.917900
   61         OQ      3      U    OP2     61 -0.77600000  16.000000   ; qtot -1.693900
   62         OR      3      U    O5'     62 -0.49890000  16.000000   ; qtot -2.192800
   63         CI      3      U    C5'     63 0.05580000  12.010000   ; qtot -2.137000
   64         H1      3      U    H5'     64 0.06790000   1.008000   ; qtot -2.069100
   65         H1      3      U   H5''     65 0.06790000   1.008000   ; qtot -2.001200
   66         CT      3      U    C4'     66 0.10650000  12.010000   ; qtot -1.894700
   67         H1      3      U    H4'     67 0.11740000   1.008000   ; qtot -1.777300
   68         OS      3      U    O4'     68 -0.35480000  16.000000   ; qtot -2.132100
   69         CT      3      U    C1'     69 0.06740000  12.010000   ; qtot -2.064700
   70         H2      3      U    H1'     70 0.18240000   1.008000   ; qtot -1.882300
   71         N*      3      U     N1     71 0.04180000  14.010000   ; qtot -1.840500
   72         CS      3      U     C6     72 -0.11260000  12.010000   ; qtot -1.953100
   73         H4      3      U     H6     73 0.21880000   1.008000   ; qtot -1.734300
   74         CS      3      U     C5     74 -0.36350000  12.010000   ; qtot -2.097800
   75         HA      3      U     H5     75 0.18110000   1.008000   ; qtot -1.916700
   76          C      3      U     C4     76 0.59520000  12.010000   ; qtot -1.321500
   77          O      3      U     O4     77 -0.57610000  16.000000   ; qtot -1.897600
   78         NA      3      U     N3     78 -0.39130000  14.010000   ; qtot -2.288900
   79          H      3      U     H3     79 0.35180000   1.008000   ; qtot -1.937100
   80          C      3      U     C2     80 0.46870000  12.010000   ; qtot -1.468400
   81          O      3      U     O2     81 -0.54770000  16.000000   ; qtot -2.016100
   82         CT      3      U    C3'     82 0.20220000  12.010000   ; qtot -1.813900
   83         H1      3      U    H3'     83 0.06150000   1.008000   ; qtot -1.752400
   84         CT      3      U    C2'     84 0.06700000  12.010000   ; qtot -1.685400
   85         H1      3      U    H2'     85 0.09720000   1.008000   ; qtot -1.588200
   86         OH      3      U    O2'     86 -0.61390000  16.000000   ; qtot -2.202100
   87         HO      3      U   HO2'     87 0.41860000   1.008000   ; qtot -1.783500
   88         OR      3      U    O3'     88 -0.52460000  16.000000   ; qtot -2.308100
; residue    4 U3 rtp U3 q -0.7
   89          P      4     U3      P     89 1.16620000  30.970000   ; qtot -1.141900
   90         OQ      4     U3    OP1     90 -0.77600000  16.000000   ; qtot -1.917900
   91         OQ      4     U3    OP2     91 -0.77600000  16.000000   ; qtot -2.693900
   92         OR      4     U3    O5'     92 -0.49890000  16.000000   ; qtot -3.192800
   93         CI      4     U3    C5'     93 0.05580000  12.010000   ; qtot -3.137000
   94         H1      4     U3    H5'     94 0.06790000   1.008000   ; qtot -3.069100
   95         H1      4     U3   H5''     95 0.06790000   1.008000   ; qtot -3.001200
   96         CT      4     U3    C4'     96 0.10650000  12.010000   ; qtot -2.894700
   97         H1      4     U3    H4'     97 0.11740000   1.008000   ; qtot -2.777300
   98         OS      4     U3    O4'     98 -0.35480000  16.000000   ; qtot -3.132100
   99         CT      4     U3    C1'     99 0.06740000  12.010000   ; qtot -3.064700
  100         H2      4     U3    H1'    100 0.18240000   1.008000   ; qtot -2.882300
  101         N*      4     U3     N1    101 0.04180000  14.010000   ; qtot -2.840500
  102         CS      4     U3     C6    102 -0.11260000  12.010000   ; qtot -2.953100
  103         H4      4     U3     H6    103 0.21880000   1.008000   ; qtot -2.734300
  104         CS      4     U3     C5    104 -0.36350000  12.010000   ; qtot -3.097800
  105         HA      4     U3     H5    105 0.18110000   1.008000   ; qtot -2.916700
  106          C      4     U3     C4    106 0.59520000  12.010000   ; qtot -2.321500
  107          O      4     U3     O4    107 -0.57610000  16.000000   ; qtot -2.897600
  108         NA      4     U3     N3    108 -0.39130000  14.010000   ; qtot -3.288900
  109          H      4     U3     H3    109 0.35180000   1.008000   ; qtot -2.937100
  110          C      4     U3     C2    110 0.46870000  12.010000   ; qtot -2.468400
  111          O      4     U3     O2    111 -0.54770000  16.000000   ; qtot -3.016100
  112         CT      4     U3    C3'    112 0.20220000  12.010000   ; qtot -2.813900
  113         H1      4     U3    H3'    113 0.06150000   1.008000   ; qtot -2.752400
  114         CT      4     U3    C2'    114 0.06700000  12.010000   ; qtot -2.685400
  115         H1      4     U3    H2'    115 0.09720000   1.008000   ; qtot -2.588200
  116         OH      4     U3    O2'    116 -0.61390000  16.000000   ; qtot -3.202100
  117         HO      4     U3   HO2'    117 0.41860000   1.008000   ; qtot -2.783500
  118         OH      4     U3    O3'    118 -0.65410000  16.000000   ; qtot -3.437600
  119         HO      4     U3   HO3'    119 0.43760000   1.008000   ; qtot -3.000000

[ bonds ]
;    ai     aj funct         c0         c1         c2         c3
     28     29     1   0.16100 192464.000000
     24     26     1   0.14100 267776.000000
     22     24     1   0.15260 259408.000000
     22     28     1   0.14100 267776.000000
     20     21     1   0.12290 476976.000000
     18     20     1   0.13880 349782.400000
     16     17     1   0.12290 476976.000000
     16     18     1   0.13880 349782.400000
     14     16     1   0.14440 343088.000000
     12     14     1   0.13500 459403.200000
     11     12     1   0.13650 374886.400000
     11     20     1   0.13830 354803.200000
      9     11     1   0.14750 282001.600000
      9     24     1   0.15260 259408.000000
      8      9     1   0.14100 267776.000000
      6      8     1   0.14100 267776.000000
      6     22     1   0.15260 259408.000000
      3      6     1   0.15260 259408.000000
      2      3     1   0.14100 267776.000000
     58     59     1   0.16100 192464.000000
     54     56     1   0.14100 267776.000000
     52     54     1   0.15260 259408.000000
     52     58     1   0.14100 267776.000000
     50     51     1   0.12290 476976.000000
     48     50     1   0.13880 349782.400000
     46     47     1   0.12290 476976.000000
     46     48     1   0.13880 349782.400000
     44     46     1   0.14440 343088.000000
     42     44     1   0.13500 459403.200000
     41     42     1   0.13650 374886.400000
     41     50     1   0.13830 354803.200000
     39     41     1   0.14750 282001.600000
     39     54     1   0.15260 259408.000000
     38     39     1   0.14100 267776.000000
     36     38     1   0.14100 267776.000000
     36     52     1   0.15260 259408.000000
     33     36     1   0.15260 259408.000000
     32     33     1   0.14100 267776.000000
     29     30     1   0.14800 439320.000000
     29     31     1   0.14800 439320.000000
     29     32     1   0.16100 192464.000000
     88     89     1   0.16100 192464.000000
     84     86     1   0.14100 267776.000000
     82     84     1   0.15260 259408.000000
     82     88     1   0.14100 267776.000000
     80     81     1   0.12290 476976.000000
     78     80     1   0.13880 349782.400000
     76     77     1   0.12290 476976.000000
     76     78     1   0.13880 349782.400000
     74     76     1   0.14440 343088.000000
     72     74     1   0.13500 459403.200000
     71     72     1   0.13650 374886.400000
     71     80     1   0.13830 354803.200000
     69     71     1   0.14750 282001.600000
     69     84     1   0.15260 259408.000000
     68     69     1   0.14100 267776.000000
     66     68     1   0.14100 267776.000000
     66     82     1   0.15260 259408.000000
     63     66     1   0.15260 259408.000000
     62     63     1   0.14100 267776.000000
     59     60     1   0.14800 439320.000000
     59     61     1   0.14800 439320.000000
     59     62     1   0.16100 192464.000000
    114    116     1   0.14100 267776.000000
    112    114     1   0.15260 259408.000000
    112    118     1   0.14100 267776.000000
    110    111     1   0.12290 476976.000000
    108    110     1   0.13880 349782.400000
    106    107     1   0.12290 476976.000000
    106    108     1   0.13880 349782.400000
    104    106     1   0.14440 343088.000000
    102    104     1   0.13500 459403.200000
    101    102     1   0.13650 374886.400000
    101    110     1   0.13830 354803.200000
     99    101     1   0.14750 282001.600000
     99    114     1   0.15260 259408.000000
     98     99     1   0.14100 267776.000000
     96     98     1   0.14100 267776.000000
     96    112     1   0.15260 259408.000000
     93     96     1   0.15260 259408.000000
     92     93     1   0.14100 267776.000000
     89     90     1   0.14800 439320.000000
     89     91     1   0.14800 439320.000000
     89     92     1   0.16100 192464.000000
     26     27     1   0.09600 462750.400000
     24     25     1   0.10900 284512.000000
     22     23     1   0.10900 284512.000000
     18     19     1   0.10100 363171.200000
     14     15     1   0.10800 307105.600000
     12     13     1   0.10800 307105.600000
      9     10     1   0.10900 284512.000000
      6      7     1   0.10900 284512.000000
      3      4     1   0.10900 284512.000000
      3      5     1   0.10900 284512.000000
      1      2     1   0.09600 462750.400000
     56     57     1   0.09600 462750.400000
     54     55     1   0.10900 284512.000000
     52     53     1   0.10900 284512.000000
     48     49     1   0.10100 363171.200000
     44     45     1   0.10800 307105.600000
     42     43     1   0.10800 307105.600000
     39     40     1   0.10900 284512.000000
     36     37     1   0.10900 284512.000000
     33     34     1   0.10900 284512.000000
     33     35     1   0.10900 284512.000000
     86     87     1   0.09600 462750.400000
     84     85     1   0.10900 284512.000000
     82     83     1   0.10900 284512.000000
     78     79     1   0.10100 363171.200000
     74     75     1   0.10800 307105.600000
     72     73     1   0.10800 307105.600000
     69     70     1   0.10900 284512.000000
     66     67     1   0.10900 284512.000000
     63     64     1   0.10900 284512.000000
     63     65     1   0.10900 284512.000000
    118    119     1   0.09600 462750.400000
    116    117     1   0.09600 462750.400000
    114    115     1   0.10900 284512.000000
    112    113     1   0.10900 284512.000000
    108    109     1   0.10100 363171.200000
    104    105     1   0.10800 307105.600000
    102    103     1   0.10800 307105.600000
     99    100     1   0.10900 284512.000000
     96     97     1   0.10900 284512.000000
     93     94     1   0.10900 284512.000000
     93     95     1   0.10900 284512.000000

[ pairs ]
;    ai     aj funct         c0         c1         c2         c3
     28     33     1
     26     28     1
     24     29     1
     22     30     1
     22     31     1
     22     32     1
     20     24     1
     17     20     1
     16     21     1
     14     20     1
     12     24     1
     12     18     1
     12     21     1
     12     17     1
     11     22     1
     11     26     1
     11     16     1
      9     14     1
      9     18     1
      9     21     1
      9     28     1
      8     28     1
      8     12     1
      8     20     1
      8     26     1
      6     11     1
      6     26     1
      6     29     1
      3      9     1
      3     24     1
      3     28     1
      2      8     1
      2     22     1
     58     63     1
     56     58     1
     54     59     1
     52     60     1
     52     61     1
     52     62     1
     50     54     1
     47     50     1
     46     51     1
     44     50     1
     42     54     1
     42     48     1
     42     51     1
     42     47     1
     41     52     1
     41     56     1
     41     46     1
     39     44     1
     39     48     1
     39     51     1
     39     58     1
     38     58     1
     38     42     1
     38     50     1
     38     56     1
     36     41     1
     36     56     1
     36     59     1
     33     39     1
     33     54     1
     33     58     1
     32     38     1
     32     52     1
     31     33     1
     30     33     1
     29     36     1
     88     93     1
     86     88     1
     84     89     1
     82     90     1
     82     91     1
     82     92     1
     80     84     1
     77     80     1
     76     81     1
     74     80     1
     72     84     1
     72     78     1
     72     81     1
     72     77     1
     71     82     1
     71     86     1
     71     76     1
     69     74     1
     69     78     1
     69     81     1
     69     88     1
     68     88     1
     68     72     1
     68     80     1
     68     86     1
     66     71     1
     66     86     1
     66     89     1
     63     69     1
     63     84     1
     63     88     1
     62     68     1
     62     82     1
     61     63     1
     60     63     1
     59     66     1
    116    118     1
    110    114     1
    107    110     1
    106    111     1
    104    110     1
    102    114     1
    102    108     1
    102    111     1
    102    107     1
    101    112     1
    101    116     1
    101    106     1
     99    104     1
     99    108     1
     99    111     1
     99    118     1
     98    118     1
     98    102     1
     98    110     1
     98    116     1
     96    101     1
     96    116     1
     93     99     1
     93    114     1
     93    118     1
     92     98     1
     92    112     1
     91     93     1
     90     93     1
     89     96     1
     25     28     1
     25     27     1
     23     25     1
     23     26     1
     23     29     1
     22     27     1
     19     21     1
     17     19     1
     15     17     1
     15     18     1
     14     19     1
     13     20     1
     13     15     1
     13     16     1
     11     25     1
     11     15     1
     11     19     1
     10     12     1
     10     20     1
     10     22     1
     10     25     1
     10     26     1
      9     13     1
      9     23     1
      9     27     1
      8     23     1
      8     25     1
      7      9     1
      7     23     1
      7     24     1
      7     28     1
      6     10     1
      6     25     1
      5      7     1
      5      8     1
      5     22     1
      4      7     1
      4      8     1
      4     22     1
      3     23     1
      2      7     1
      1      4     1
      1      5     1
      1      6     1
     55     58     1
     55     57     1
     53     55     1
     53     56     1
     53     59     1
     52     57     1
     49     51     1
     47     49     1
     45     47     1
     45     48     1
     44     49     1
     43     50     1
     43     45     1
     43     46     1
     41     55     1
     41     45     1
     41     49     1
     40     42     1
     40     50     1
     40     52     1
     40     55     1
     40     56     1
     39     43     1
     39     53     1
     39     57     1
     38     53     1
     38     55     1
     37     39     1
     37     53     1
     37     54     1
     37     58     1
     36     40     1
     36     55     1
     35     37     1
     35     38     1
     35     52     1
     34     37     1
     34     38     1
     34     52     1
     33     53     1
     32     37     1
     29     34     1
     29     35     1
     85     88     1
     85     87     1
     83     85     1
     83     86     1
     83     89     1
     82     87     1
     79     81     1
     77     79     1
     75     77     1
     75     78     1
     74     79     1
     73     80     1
     73     75     1
     73     76     1
     71     85     1
     71     75     1
     71     79     1
     70     72     1
     70     80     1
     70     82     1
     70     85     1
     70     86     1
     69     73     1
     69     83     1
     69     87     1
     68     83     1
     68     85     1
     67     69     1
     67     83     1
     67     84     1
     67     88     1
     66     70     1
     66     85     1
     65     67     1
     65     68     1
     65     82     1
     64     67     1
     64     68     1
     64     82     1
     63     83     1
     62     67     1
     59     64     1
     59     65     1
    115    118     1
    115    117     1
    114    119     1
    113    115     1
    113    116     1
    113    119     1
    112    117     1
    109    111     1
    107    109     1
    105    107     1
    105    108     1
    104    109     1
    103    110     1
    103    105     1
    103    106     1
    101    115     1
    101    105     1
    101    109     1
    100    102     1
    100    110     1
    100    112     1
    100    115     1
    100    116     1
     99    103     1
     99    113     1
     99    117     1
     98    113     1
     98    115     1
     97     99     1
     97    113     1
     97    114     1
     97    118     1
     96    100     1
     96    115     1
     96    119     1
     95     97     1
     95     98     1
     95    112     1
     94     97     1
     94     98     1
     94    112     1
     93    113     1
     92     97     1
     89     94     1
     89     95     1

[ angles ]
;    ai     aj     ak funct         c0         c1         c2         c3
     28     29     30     1   108.2300464 836.800000
     28     29     31     1   108.2300464 836.800000
     28     29     32     1   102.6000440 376.560000
     24     22     28     1   109.5000469 418.400000
     22     24     26     1   109.5000469 418.400000
     22     28     29     1   120.5000516 836.800000
     18     20     21     1   120.6000517 669.440000
     17     16     18     1   120.6000517 669.440000
     16     18     20     1   126.4000542 585.760000
     14     16     17     1   125.3000537 669.440000
     14     16     18     1   114.1000489 585.760000
     12     11     20     1   121.6000521 585.760000
     12     14     16     1   120.7000517 527.184000
     11      9     24     1   109.5000469 418.400000
     11     12     14     1   121.2000519 585.760000
     11     20     18     1   115.4000495 585.760000
     11     20     21     1   120.9000518 669.440000
      9     11     12     1   121.2000519 585.760000
      9     11     20     1   117.6000504 585.760000
      9     24     22     1   109.5000469 334.720000
      9     24     26     1   109.5000469 418.400000
      8      6     22     1   109.5000469 418.400000
      8      9     11     1   109.5000469 418.400000
      8      9     24     1   109.5000469 418.400000
      6      8      9     1   109.5000469 502.080000
      6     22     24     1   109.5000469 334.720000
      6     22     28     1   109.5000469 418.400000
      3      6      8     1   109.5000469 418.400000
      3      6     22     1   109.5000469 334.720000
      2      3      6     1   109.5000469 418.400000
     58     59     60     1   108.2300464 836.800000
     58     59     61     1   108.2300464 836.800000
     58     59     62     1   102.6000440 376.560000
     54     52     58     1   109.5000469 418.400000
     52     54     56     1   109.5000469 418.400000
     52     58     59     1   120.5000516 836.800000
     48     50     51     1   120.6000517 669.440000
     47     46     48     1   120.6000517 669.440000
     46     48     50     1   126.4000542 585.760000
     44     46     47     1   125.3000537 669.440000
     44     46     48     1   114.1000489 585.760000
     42     41     50     1   121.6000521 585.760000
     42     44     46     1   120.7000517 527.184000
     41     39     54     1   109.5000469 418.400000
     41     42     44     1   121.2000519 585.760000
     41     50     48     1   115.4000495 585.760000
     41     50     51     1   120.9000518 669.440000
     39     41     42     1   121.2000519 585.760000
     39     41     50     1   117.6000504 585.760000
     39     54     52     1   109.5000469 334.720000
     39     54     56     1   109.5000469 418.400000
     38     36     52     1   109.5000469 418.400000
     38     39     41     1   109.5000469 418.400000
     38     39     54     1   109.5000469 418.400000
     36     38     39     1   109.5000469 502.080000
     36     52     54     1   109.5000469 334.720000
     36     52     58     1   109.5000469 418.400000
     33     36     38     1   109.5000469 418.400000
     33     36     52     1   109.5000469 334.720000
     32     33     36     1   109.5000469 418.400000
     31     29     32     1   108.2300464 836.800000
     30     29     31     1   119.9000514 1171.520000
     30     29     32     1   108.2300464 836.800000
     29     32     33     1   120.5000516 836.800000
     88     89     90     1   108.2300464 836.800000
     88     89     91     1   108.2300464 836.800000
     88     89     92     1   102.6000440 376.560000
     84     82     88     1   109.5000469 418.400000
     82     84     86     1   109.5000469 418.400000
     82     88     89     1   120.5000516 836.800000
     78     80     81     1   120.6000517 669.440000
     77     76     78     1   120.6000517 669.440000
     76     78     80     1   126.4000542 585.760000
     74     76     77     1   125.3000537 669.440000
     74     76     78     1   114.1000489 585.760000
     72     71     80     1   121.6000521 585.760000
     72     74     76     1   120.7000517 527.184000
     71     69     84     1   109.5000469 418.400000
     71     72     74     1   121.2000519 585.760000
     71     80     78     1   115.4000495 585.760000
     71     80     81     1   120.9000518 669.440000
     69     71     72     1   121.2000519 585.760000
     69     71     80     1   117.6000504 585.760000
     69     84     82     1   109.5000469 334.720000
     69     84     86     1   109.5000469 418.400000
     68     66     82     1   109.5000469 418.400000
     68     69     71     1   109.5000469 418.400000
     68     69     84     1   109.5000469 418.400000
     66     68     69     1   109.5000469 502.080000
     66     82     84     1   109.5000469 334.720000
     66     82     88     1   109.5000469 418.400000
     63     66     68     1   109.5000469 418.400000
     63     66     82     1   109.5000469 334.720000
     62     63     66     1   109.5000469 418.400000
     61     59     62     1   108.2300464 836.800000
     60     59     61     1   119.9000514 1171.520000
     60     59     62     1   108.2300464 836.800000
     59     62     63     1   120.5000516 836.800000
    114    112    118     1   109.5000469 418.400000
    112    114    116     1   109.5000469 418.400000
    108    110    111     1   120.6000517 669.440000
    107    106    108     1   120.6000517 669.440000
    106    108    110     1   126.4000542 585.760000
    104    106    107     1   125.3000537 669.440000
    104    106    108     1   114.1000489 585.760000
    102    101    110     1   121.6000521 585.760000
    102    104    106     1   120.7000517 527.184000
    101     99    114     1   109.5000469 418.400000
    101    102    104     1   121.2000519 585.760000
    101    110    108     1   115.4000495 585.760000
    101    110    111     1   120.9000518 669.440000
     99    101    102     1   121.2000519 585.760000
     99    101    110     1   117.6000504 585.760000
     99    114    112     1   109.5000469 334.720000
     99    114    116     1   109.5000469 418.400000
     98     96    112     1   109.5000469 418.400000
     98     99    101     1   109.5000469 418.400000
     98     99    114     1   109.5000469 418.400000
     96     98     99     1   109.5000469 502.080000
     96    112    114     1   109.5000469 334.720000
     96    112    118     1   109.5000469 418.400000
     93     96     98     1   109.5000469 418.400000
     93     96    112     1   109.5000469 334.720000
     92     93     96     1   109.5000469 418.400000
     91     89     92     1   108.2300464 836.800000
     90     89     91     1   119.9000514 1171.520000
     90     89     92     1   108.2300464 836.800000
     89     92     93     1   120.5000516 836.800000
     25     24     26     1   109.5000469 418.400000
     24     26     27     1   108.5000465 460.240000
     23     22     24     1   109.5000469 418.400000
     23     22     28     1   109.5000469 418.400000
     22     24     25     1   109.5000469 418.400000
     19     18     20     1   116.8000501 418.400000
     16     18     19     1   116.8000501 418.400000
     15     14     16     1   119.7000513 418.400000
     13     12     14     1   119.7000513 418.400000
     12     14     15     1   119.7000513 418.400000
     11     12     13     1   119.1000510 418.400000
     10      9     11     1   109.5000469 418.400000
     10      9     24     1   109.5000469 418.400000
      9     24     25     1   109.5000469 418.400000
      8      9     10     1   109.5000469 418.400000
      7      6      8     1   109.5000469 418.400000
      7      6     22     1   109.5000469 418.400000
      6     22     23     1   109.5000469 418.400000
      5      3      6     1   109.5000469 418.400000
      4      3      5     1   109.5000469 292.880000
      4      3      6     1   109.5000469 418.400000
      3      6      7     1   109.5000469 418.400000
      2      3      4     1   109.5000469 418.400000
      2      3      5     1   109.5000469 418.400000
      1      2      3     1   108.5000465 460.240000
     55     54     56     1   109.5000469 418.400000
     54     56     57     1   108.5000465 460.240000
     53     52     54     1   109.5000469 418.400000
     53     52     58     1   109.5000469 418.400000
     52     54     55     1   109.5000469 418.400000
     49     48     50     1   116.8000501 418.400000
     46     48     49     1   116.8000501 418.400000
     45     44     46     1   119.7000513 418.400000
     43     42     44     1   119.7000513 418.400000
     42     44     45     1   119.7000513 418.400000
     41     42     43     1   119.1000510 418.400000
     40     39     41     1   109.5000469 418.400000
     40     39     54     1   109.5000469 418.400000
     39     54     55     1   109.5000469 418.400000
     38     39     40     1   109.5000469 418.400000
     37     36     38     1   109.5000469 418.400000
     37     36     52     1   109.5000469 418.400000
     36     52     53     1   109.5000469 418.400000
     35     33     36     1   109.5000469 418.400000
     34     33     35     1   109.5000469 292.880000
     34     33     36     1   109.5000469 418.400000
     33     36     37     1   109.5000469 418.400000
     32     33     34     1   109.5000469 418.400000
     32     33     35     1   109.5000469 418.400000
     85     84     86     1   109.5000469 418.400000
     84     86     87     1   108.5000465 460.240000
     83     82     84     1   109.5000469 418.400000
     83     82     88     1   109.5000469 418.400000
     82     84     85     1   109.5000469 418.400000
     79     78     80     1   116.8000501 418.400000
     76     78     79     1   116.8000501 418.400000
     75     74     76     1   119.7000513 418.400000
     73     72     74     1   119.7000513 418.400000
     72     74     75     1   119.7000513 418.400000
     71     72     73     1   119.1000510 418.400000
     70     69     71     1   109.5000469 418.400000
     70     69     84     1   109.5000469 418.400000
     69     84     85     1   109.5000469 418.400000
     68     69     70     1   109.5000469 418.400000
     67     66     68     1   109.5000469 418.400000
     67     66     82     1   109.5000469 418.400000
     66     82     83     1   109.5000469 418.400000
     65     63     66     1   109.5000469 418.400000
     64     63     65     1   109.5000469 292.880000
     64     63     66     1   109.5000469 418.400000
     63     66     67     1   109.5000469 418.400000
     62     63     64     1   109.5000469 418.400000
     62     63     65     1   109.5000469 418.400000
    115    114    116     1   109.5000469 418.400000
    114    116    117     1   108.5000465 460.240000
    113    112    114     1   109.5000469 418.400000
    113    112    118     1   109.5000469 418.400000
    112    114    115     1   109.5000469 418.400000
    112    118    119     1   108.5000465 460.240000
    109    108    110     1   116.8000501 418.400000
    106    108    109     1   116.8000501 418.400000
    105    104    106     1   119.7000513 418.400000
    103    102    104     1   119.7000513 418.400000
    102    104    105     1   119.7000513 418.400000
    101    102    103     1   119.1000510 418.400000
    100     99    101     1   109.5000469 418.400000
    100     99    114     1   109.5000469 418.400000
     99    114    115     1   109.5000469 418.400000
     98     99    100     1   109.5000469 418.400000
     97     96     98     1   109.5000469 418.400000
     97     96    112     1   109.5000469 418.400000
     96    112    113     1   109.5000469 418.400000
     95     93     96     1   109.5000469 418.400000
     94     93     95     1   109.5000469 292.880000
     94     93     96     1   109.5000469 418.400000
     93     96     97     1   109.5000469 418.400000
     92     93     94     1   109.5000469 418.400000
     92     93     95     1   109.5000469 418.400000

[ dihedrals ]
;    ai     aj     ak     al funct         c0         c1         c2         c3         c4         c5
     28     29     32     33     1  31.7950936  0.7747973  1
     28     29     32     33     1  351.9597510  5.2573257  2
     28     29     32     33     1  357.2476330  1.4847259  3
     26     24     22     28     1  0.0000000  4.9162000  2
     26     24     22     28     1  0.0000000  0.6024960  3
     24     22     28     29     1  0.0000000  1.6038667  3
     22     28     29     30     1  0.0000000  1.0460000  3
     22     28     29     31     1  0.0000000  1.0460000  3
     22     28     29     32     1  333.9801429  -1.1598843  1
     22     28     29     32     1  2.9800013  4.4603365  2
     22     28     29     32     1  29.4700126  0.7878430  3
     20     11      9     24     1  0.0000000  0.0000000  2
     17     16     18     20     1  180.0000771  5.6484000  2
     16     18     20     21     1  180.0000771  5.6484000  2
     14     12     11     20     1  180.0000771  7.7404000  2
     14     16     18     20     1  180.0000771  5.6484000  2
     12     11      9     24     1  0.0000000  0.0000000  2
     12     11     20     18     1  180.0000771  6.0668000  2
     12     11     20     21     1  180.0000771  6.0668000  2
     12     14     16     17     1  180.0000771  9.1002000  2
     12     14     16     17     1  0.0000000  1.2552000  3
     12     14     16     18     1  180.0000771  9.1002000  2
     11      9     24     22     1  0.0000000  0.6508444  3
     11      9     24     26     1  0.0000000  0.6508444  3
     11     12     14     16     1  180.0000771  27.8236000  2
     11     20     18     16     1  180.0000771  5.6484000  2
      9      8      6     22     1  180.0000771  0.4184000  2
      9      8      6     22     1  0.0000000  1.6024720  3
      9     11     12     14     1  180.0000771  7.7404000  2
      9     11     20     18     1  180.0000771  6.0668000  2
      9     11     20     21     1  180.0000771  6.0668000  2
      9     24     22     28     1  0.0000000  0.6508444  3
      8      6     22     24     1  0.0000000  0.6508444  3
      8      6     22     28     1  0.0000000  4.9162000  2
      8      6     22     28     1  0.0000000  0.6024960  3
      8      9     11     12     1  147.4600633  2.5402277  1
      8      9     11     12     1  346.4201487  5.4288069  2
      8      9     11     12     1  38.1300163  -2.0913808  3
      8      9     11     12     1  348.0001491  -0.6909207  4
      8      9     11     20     1  0.0000000  0.0000000  2
      8      9     24     22     1  0.0000000  0.6508444  3
      8      9     24     26     1  0.0000000  4.9162000  2
      8      9     24     26     1  0.0000000  0.6024960  3
      6      8      9     11     1  0.0000000  2.7196000  2
      6      8      9     11     1  0.0000000  1.6024720  3
      6      8      9     24     1  180.0000771  0.4184000  2
      6      8      9     24     1  0.0000000  1.6024720  3
      6     22     24      9     1  180.0000771  0.8368000  1
      6     22     24      9     1  180.0000771  1.0460000  2
      6     22     24      9     1  0.0000000  0.7531200  3
      6     22     24     26     1  0.0000000  0.6508444  3
      6     22     28     29     1  0.0000000  1.6038667  3
      3      6      8      9     1  180.0000771  0.4184000  2
      3      6      8      9     1  0.0000000  1.6024720  3
      3      6     22     24     1  180.0000771  0.8368000  1
      3      6     22     24     1  180.0000771  1.0460000  2
      3      6     22     24     1  0.0000000  0.7531200  3
      3      6     22     28     1  0.0000000  0.6508444  3
      2      3      6      8     1  0.0000000  0.6508444  3
      2      3      6     22     1  299.6901286  -1.5060182  1
      2      3      6     22     1  274.1001175  5.1381528  2
      2      3      6     22     1  342.2101465  3.2676873  3
     58     59     62     63     1  31.7950936  0.7747973  1
     58     59     62     63     1  351.9597510  5.2573257  2
     58     59     62     63     1  357.2476330  1.4847259  3
     56     54     52     58     1  0.0000000  4.9162000  2
     56     54     52     58     1  0.0000000  0.6024960  3
     54     52     58     59     1  0.0000000  1.6038667  3
     52     58     59     60     1  0.0000000  1.0460000  3
     52     58     59     61     1  0.0000000  1.0460000  3
     52     58     59     62     1  333.9801429  -1.1598843  1
     52     58     59     62     1  2.9800013  4.4603365  2
     52     58     59     62     1  29.4700126  0.7878430  3
     50     41     39     54     1  0.0000000  0.0000000  2
     47     46     48     50     1  180.0000771  5.6484000  2
     46     48     50     51     1  180.0000771  5.6484000  2
     44     42     41     50     1  180.0000771  7.7404000  2
     44     46     48     50     1  180.0000771  5.6484000  2
     42     41     39     54     1  0.0000000  0.0000000  2
     42     41     50     48     1  180.0000771  6.0668000  2
     42     41     50     51     1  180.0000771  6.0668000  2
     42     44     46     47     1  180.0000771  9.1002000  2
     42     44     46     47     1  0.0000000  1.2552000  3
     42     44     46     48     1  180.0000771  9.1002000  2
     41     39     54     52     1  0.0000000  0.6508444  3
     41     39     54     56     1  0.0000000  0.6508444  3
     41     42     44     46     1  180.0000771  27.8236000  2
     41     50     48     46     1  180.0000771  5.6484000  2
     39     38     36     52     1  180.0000771  0.4184000  2
     39     38     36     52     1  0.0000000  1.6024720  3
     39     41     42     44     1  180.0000771  7.7404000  2
     39     41     50     48     1  180.0000771  6.0668000  2
     39     41     50     51     1  180.0000771  6.0668000  2
     39     54     52     58     1  0.0000000  0.6508444  3
     38     36     52     54     1  0.0000000  0.6508444  3
     38     36     52     58     1  0.0000000  4.9162000  2
     38     36     52     58     1  0.0000000  0.6024960  3
     38     39     41     42     1  147.4600633  2.5402277  1
     38     39     41     42     1  346.4201487  5.4288069  2
     38     39     41     42     1  38.1300163  -2.0913808  3
     38     39     41     42     1  348.0001491  -0.6909207  4
     38     39     41     50     1  0.0000000  0.0000000  2
     38     39     54     52     1  0.0000000  0.6508444  3
     38     39     54     56     1  0.0000000  4.9162000  2
     38     39     54     56     1  0.0000000  0.6024960  3
     36     38     39     41     1  0.0000000  2.7196000  2
     36     38     39     41     1  0.0000000  1.6024720  3
     36     38     39     54     1  180.0000771  0.4184000  2
     36     38     39     54     1  0.0000000  1.6024720  3
     36     52     54     39     1  180.0000771  0.8368000  1
     36     52     54     39     1  180.0000771  1.0460000  2
     36     52     54     39     1  0.0000000  0.7531200  3
     36     52     54     56     1  0.0000000  0.6508444  3
     36     52     58     59     1  0.0000000  1.6038667  3
     33     36     38     39     1  180.0000771  0.4184000  2
     33     36     38     39     1  0.0000000  1.6024720  3
     33     36     52     54     1  180.0000771  0.8368000  1
     33     36     52     54     1  180.0000771  1.0460000  2
     33     36     52     54     1  0.0000000  0.7531200  3
     33     36     52     58     1  0.0000000  0.6508444  3
     32     33     36     38     1  0.0000000  0.6508444  3
     32     33     36     52     1  299.6901286  -1.5060182  1
     32     33     36     52     1  274.1001175  5.1381528  2
     32     33     36     52     1  342.2101465  3.2676873  3
     31     29     32     33     1  0.0000000  1.0460000  3
     30     29     32     33     1  0.0000000  1.0460000  3
     29     32     33     36     1  0.0000000  1.6038667  3
     88     89     92     93     1  31.7950936  0.7747973  1
     88     89     92     93     1  351.9597510  5.2573257  2
     88     89     92     93     1  357.2476330  1.4847259  3
     86     84     82     88     1  0.0000000  4.9162000  2
     86     84     82     88     1  0.0000000  0.6024960  3
     84     82     88     89     1  0.0000000  1.6038667  3
     82     88     89     90     1  0.0000000  1.0460000  3
     82     88     89     91     1  0.0000000  1.0460000  3
     82     88     89     92     1  333.9801429  -1.1598843  1
     82     88     89     92     1  2.9800013  4.4603365  2
     82     88     89     92     1  29.4700126  0.7878430  3
     80     71     69     84     1  0.0000000  0.0000000  2
     77     76     78     80     1  180.0000771  5.6484000  2
     76     78     80     81     1  180.0000771  5.6484000  2
     74     72     71     80     1  180.0000771  7.7404000  2
     74     76     78     80     1  180.0000771  5.6484000  2
     72     71     69     84     1  0.0000000  0.0000000  2
     72     71     80     78     1  180.0000771  6.0668000  2
     72     71     80     81     1  180.0000771  6.0668000  2
     72     74     76     77     1  180.0000771  9.1002000  2
     72     74     76     77     1  0.0000000  1.2552000  3
     72     74     76     78     1  180.0000771  9.1002000  2
     71     69     84     82     1  0.0000000  0.6508444  3
     71     69     84     86     1  0.0000000  0.6508444  3
     71     72     74     76     1  180.0000771  27.8236000  2
     71     80     78     76     1  180.0000771  5.6484000  2
     69     68     66     82     1  180.0000771  0.4184000  2
     69     68     66     82     1  0.0000000  1.6024720  3
     69     71     72     74     1  180.0000771  7.7404000  2
     69     71     80     78     1  180.0000771  6.0668000  2
     69     71     80     81     1  180.0000771  6.0668000  2
     69     84     82     88     1  0.0000000  0.6508444  3
     68     66     82     84     1  0.0000000  0.6508444  3
     68     66     82     88     1  0.0000000  4.9162000  2
     68     66     82     88     1  0.0000000  0.6024960  3
     68     69     71     72     1  147.4600633  2.5402277  1
     68     69     71     72     1  346.4201487  5.4288069  2
     68     69     71     72     1  38.1300163  -2.0913808  3
     68     69     71     72     1  348.0001491  -0.6909207  4
     68     69     71     80     1  0.0000000  0.0000000  2
     68     69     84     82     1  0.0000000  0.6508444  3
     68     69     84     86     1  0.0000000  4.9162000  2
     68     69     84     86     1  0.0000000  0.6024960  3
     66     68     69     71     1  0.0000000  2.7196000  2
     66     68     69     71     1  0.0000000  1.6024720  3
     66     68     69     84     1  180.0000771  0.4184000  2
     66     68     69     84     1  0.0000000  1.6024720  3
     66     82     84     69     1  180.0000771  0.8368000  1
     66     82     84     69     1  180.0000771  1.0460000  2
     66     82     84     69     1  0.0000000  0.7531200  3
     66     82     84     86     1  0.0000000  0.6508444  3
     66     82     88     89     1  0.0000000  1.6038667  3
     63     66     68     69     1  180.0000771  0.4184000  2
     63     66     68     69     1  0.0000000  1.6024720  3
     63     66     82     84     1  180.0000771  0.8368000  1
     63     66     82     84     1  180.0000771  1.0460000  2
     63     66     82     84     1  0.0000000  0.7531200  3
     63     66     82     88     1  0.0000000  0.6508444  3
     62     63     66     68     1  0.0000000  0.6508444  3
     62     63     66     82     1  299.6901286  -1.5060182  1
     62     63     66     82     1  274.1001175  5.1381528  2
     62     63     66     82     1  342.2101465  3.2676873  3
     61     59     62     63     1  0.0000000  1.0460000  3
     60     59     62     63     1  0.0000000  1.0460000  3
     59     62     63     66     1  0.0000000  1.6038667  3
    116    114    112    118     1  0.0000000  4.9162000  2
    116    114    112    118     1  0.0000000  0.6024960  3
    110    101     99    114     1  0.0000000  0.0000000  2
    107    106    108    110     1  180.0000771  5.6484000  2
    106    108    110    111     1  180.0000771  5.6484000  2
    104    102    101    110     1  180.0000771  7.7404000  2
    104    106    108    110     1  180.0000771  5.6484000  2
    102    101     99    114     1  0.0000000  0.0000000  2
    102    101    110    108     1  180.0000771  6.0668000  2
    102    101    110    111     1  180.0000771  6.0668000  2
    102    104    106    107     1  180.0000771  9.1002000  2
    102    104    106    107     1  0.0000000  1.2552000  3
    102    104    106    108     1  180.0000771  9.1002000  2
    101     99    114    112     1  0.0000000  0.6508444  3
    101     99    114    116     1  0.0000000  0.6508444  3
    101    102    104    106     1  180.0000771  27.8236000  2
    101    110    108    106     1  180.0000771  5.6484000  2
     99     98     96    112     1  180.0000771  0.4184000  2
     99     98     96    112     1  0.0000000  1.6024720  3
     99    101    102    104     1  180.0000771  7.7404000  2
     99    101    110    108     1  180.0000771  6.0668000  2
     99    101    110    111     1  180.0000771  6.0668000  2
     99    114    112    118     1  0.0000000  0.6508444  3
     98     96    112    114     1  0.0000000  0.6508444  3
     98     96    112    118     1  0.0000000  4.9162000  2
     98     96    112    118     1  0.0000000  0.6024960  3
     98     99    101    102     1  147.4600633  2.5402277  1
     98     99    101    102     1  346.4201487  5.4288069  2
     98     99    101    102     1  38.1300163  -2.0913808  3
     98     99    101    102     1  348.0001491  -0.6909207  4
     98     99    101    110     1  0.0000000  0.0000000  2
     98     99    114    112     1  0.0000000  0.6508444  3
     98     99    114    116     1  0.0000000  4.9162000  2
     98     99    114    116     1  0.0000000  0.6024960  3
     96     98     99    101     1  0.0000000  2.7196000  2
     96     98     99    101     1  0.0000000  1.6024720  3
     96     98     99    114     1  180.0000771  0.4184000  2
     96     98     99    114     1  0.0000000  1.6024720  3
     96    112    114     99     1  180.0000771  0.8368000  1
     96    112    114     99     1  180.0000771  1.0460000  2
     96    112    114     99     1  0.0000000  0.7531200  3
     96    112    114    116     1  0.0000000  0.6508444  3
     93     96     98     99     1  180.0000771  0.4184000  2
     93     96     98     99     1  0.0000000  1.6024720  3
     93     96    112    114     1  180.0000771  0.8368000  1
     93     96    112    114     1  180.0000771  1.0460000  2
     93     96    112    114     1  0.0000000  0.7531200  3
     93     96    112    118     1  0.0000000  0.6508444  3
     92     93     96     98     1  0.0000000  0.6508444  3
     92     93     96    112     1  299.6901286  -1.5060182  1
     92     93     96    112     1  274.1001175  5.1381528  2
     92     93     96    112     1  342.2101465  3.2676873  3
     91     89     92     93     1  0.0000000  1.0460000  3
     90     89     92     93     1  0.0000000  1.0460000  3
     89     92     93     96     1  0.0000000  1.6038667  3
     11     18     20     21     4  180.0000771  43.9320000  2
     14     18     16     17     4  180.0000771  43.9320000  2
     20     12     11      9     4  180.0000771  4.1840000  2
     41     48     50     51     4  180.0000771  43.9320000  2
     44     48     46     47     4  180.0000771  43.9320000  2
     50     42     41     39     4  180.0000771  4.1840000  2
     71     78     80     81     4  180.0000771  43.9320000  2
     74     78     76     77     4  180.0000771  43.9320000  2
     80     72     71     69     4  180.0000771  4.1840000  2
    101    108    110    111     4  180.0000771  43.9320000  2
    104    108    106    107     4  180.0000771  43.9320000  2
    110    102    101     99     4  180.0000771  4.1840000  2
     25     24     22     28     1  0.0000000  1.0460000  1
     25     24     22     28     1  0.0000000  0.0000000  3
     25     24     26     27     1  0.0000000  0.6973333  3
     23     22     24     25     1  0.0000000  0.6508444  3
     23     22     24     26     1  0.0000000  1.0460000  1
     23     22     24     26     1  0.0000000  0.0000000  3
     23     22     28     29     1  0.0000000  1.6038667  3
     22     24     26     27     1  0.0000000  1.0460000  1
     22     24     26     27     1  0.0000000  0.6694400  3
     19     18     20     21     1  180.0000771  5.6484000  2
     17     16     18     19     1  180.0000771  5.6484000  2
     15     14     16     17     1  180.0000771  9.1002000  2
     15     14     16     18     1  180.0000771  9.1002000  2
     14     16     18     19     1  180.0000771  5.6484000  2
     13     12     11     20     1  180.0000771  7.7404000  2
     13     12     14     15     1  180.0000771  27.8236000  2
     13     12     14     16     1  180.0000771  27.8236000  2
     11      9     24     25     1  0.0000000  0.6508444  3
     11     12     14     15     1  180.0000771  27.8236000  2
     11     20     18     19     1  180.0000771  5.6484000  2
     10      9     11     12     1  0.0000000  0.0000000  2
     10      9     11     20     1  0.0000000  0.0000000  2
     10      9     24     22     1  0.0000000  0.6508444  3
     10      9     24     25     1  0.0000000  0.6508444  3
     10      9     24     26     1  0.0000000  0.6508444  3
      9     11     12     13     1  180.0000771  7.7404000  2
      9     24     22     23     1  0.0000000  0.6508444  3
      9     24     26     27     1  0.0000000  1.0460000  1
      9     24     26     27     1  0.0000000  0.6694400  3
      8      6     22     23     1  0.0000000  1.0460000  1
      8      6     22     23     1  0.0000000  0.0000000  3
      8      9     24     25     1  0.0000000  1.0460000  1
      8      9     24     25     1  0.0000000  0.0000000  3
      7      6      8      9     1  0.0000000  1.6038667  3
      7      6     22     23     1  0.0000000  0.6508444  3
      7      6     22     24     1  0.0000000  0.6508444  3
      7      6     22     28     1  0.0000000  1.0460000  1
      7      6     22     28     1  0.0000000  0.0000000  3
      6      8      9     10     1  0.0000000  1.6038667  3
      6     22     24     25     1  0.0000000  0.6508444  3
      5      3      6      7     1  0.0000000  0.6508444  3
      5      3      6      8     1  0.0000000  1.0460000  1
      5      3      6      8     1  0.0000000  0.0000000  3
      5      3      6     22     1  0.0000000  0.6508444  3
      4      3      6      7     1  0.0000000  0.6508444  3
      4      3      6      8     1  0.0000000  1.0460000  1
      4      3      6      8     1  0.0000000  0.0000000  3
      4      3      6     22     1  0.0000000  0.6508444  3
      3      6     22     23     1  0.0000000  0.6508444  3
      2      3      6      7     1  0.0000000  1.0460000  1
      2      3      6      7     1  0.0000000  0.0000000  3
      1      2      3      4     1  0.0000000  0.6973333  3
      1      2      3      5     1  0.0000000  0.6973333  3
      1      2      3      6     1  0.0000000  0.6973333  3
     55     54     52     58     1  0.0000000  1.0460000  1
     55     54     52     58     1  0.0000000  0.0000000  3
     55     54     56     57     1  0.0000000  0.6973333  3
     53     52     54     55     1  0.0000000  0.6508444  3
     53     52     54     56     1  0.0000000  1.0460000  1
     53     52     54     56     1  0.0000000  0.0000000  3
     53     52     58     59     1  0.0000000  1.6038667  3
     52     54     56     57     1  0.0000000  1.0460000  1
     52     54     56     57     1  0.0000000  0.6694400  3
     49     48     50     51     1  180.0000771  5.6484000  2
     47     46     48     49     1  180.0000771  5.6484000  2
     45     44     46     47     1  180.0000771  9.1002000  2
     45     44     46     48     1  180.0000771  9.1002000  2
     44     46     48     49     1  180.0000771  5.6484000  2
     43     42     41     50     1  180.0000771  7.7404000  2
     43     42     44     45     1  180.0000771  27.8236000  2
     43     42     44     46     1  180.0000771  27.8236000  2
     41     39     54     55     1  0.0000000  0.6508444  3
     41     42     44     45     1  180.0000771  27.8236000  2
     41     50     48     49     1  180.0000771  5.6484000  2
     40     39     41     42     1  0.0000000  0.0000000  2
     40     39     41     50     1  0.0000000  0.0000000  2
     40     39     54     52     1  0.0000000  0.6508444  3
     40     39     54     55     1  0.0000000  0.6508444  3
     40     39     54     56     1  0.0000000  0.6508444  3
     39     41     42     43     1  180.0000771  7.7404000  2
     39     54     52     53     1  0.0000000  0.6508444  3
     39     54     56     57     1  0.0000000  1.0460000  1
     39     54     56     57     1  0.0000000  0.6694400  3
     38     36     52     53     1  0.0000000  1.0460000  1
     38     36     52     53     1  0.0000000  0.0000000  3
     38     39     54     55     1  0.0000000  1.0460000  1
     38     39     54     55     1  0.0000000  0.0000000  3
     37     36     38     39     1  0.0000000  1.6038667  3
     37     36     52     53     1  0.0000000  0.6508444  3
     37     36     52     54     1  0.0000000  0.6508444  3
     37     36     52     58     1  0.0000000  1.0460000  1
     37     36     52     58     1  0.0000000  0.0000000  3
     36     38     39     40     1  0.0000000  1.6038667  3
     36     52     54     55     1  0.0000000  0.6508444  3
     35     33     36     37     1  0.0000000  0.6508444  3
     35     33     36     38     1  0.0000000  1.0460000  1
     35     33     36     38     1  0.0000000  0.0000000  3
     35     33     36     52     1  0.0000000  0.6508444  3
     34     33     36     37     1  0.0000000  0.6508444  3
     34     33     36     38     1  0.0000000  1.0460000  1
     34     33     36     38     1  0.0000000  0.0000000  3
     34     33     36     52     1  0.0000000  0.6508444  3
     33     36     52     53     1  0.0000000  0.6508444  3
     32     33     36     37     1  0.0000000  1.0460000  1
     32     33     36     37     1  0.0000000  0.0000000  3
     29     32     33     34     1  0.0000000  1.6038667  3
     29     32     33     35     1  0.0000000  1.6038667  3
     85     84     82     88     1  0.0000000  1.0460000  1
     85     84     82     88     1  0.0000000  0.0000000  3
     85     84     86     87     1  0.0000000  0.6973333  3
     83     82     84     85     1  0.0000000  0.6508444  3
     83     82     84     86     1  0.0000000  1.0460000  1
     83     82     84     86     1  0.0000000  0.0000000  3
     83     82     88     89     1  0.0000000  1.6038667  3
     82     84     86     87     1  0.0000000  1.0460000  1
     82     84     86     87     1  0.0000000  0.6694400  3
     79     78     80     81     1  180.0000771  5.6484000  2
     77     76     78     79     1  180.0000771  5.6484000  2
     75     74     76     77     1  180.0000771  9.1002000  2
     75     74     76     78     1  180.0000771  9.1002000  2
     74     76     78     79     1  180.0000771  5.6484000  2
     73     72     71     80     1  180.0000771  7.7404000  2
     73     72     74     75     1  180.0000771  27.8236000  2
     73     72     74     76     1  180.0000771  27.8236000  2
     71     69     84     85     1  0.0000000  0.6508444  3
     71     72     74     75     1  180.0000771  27.8236000  2
     71     80     78     79     1  180.0000771  5.6484000  2
     70     69     71     72     1  0.0000000  0.0000000  2
     70     69     71     80     1  0.0000000  0.0000000  2
     70     69     84     82     1  0.0000000  0.6508444  3
     70     69     84     85     1  0.0000000  0.6508444  3
     70     69     84     86     1  0.0000000  0.6508444  3
     69     71     72     73     1  180.0000771  7.7404000  2
     69     84     82     83     1  0.0000000  0.6508444  3
     69     84     86     87     1  0.0000000  1.0460000  1
     69     84     86     87     1  0.0000000  0.6694400  3
     68     66     82     83     1  0.0000000  1.0460000  1
     68     66     82     83     1  0.0000000  0.0000000  3
     68     69     84     85     1  0.0000000  1.0460000  1
     68     69     84     85     1  0.0000000  0.0000000  3
     67     66     68     69     1  0.0000000  1.6038667  3
     67     66     82     83     1  0.0000000  0.6508444  3
     67     66     82     84     1  0.0000000  0.6508444  3
     67     66     82     88     1  0.0000000  1.0460000  1
     67     66     82     88     1  0.0000000  0.0000000  3
     66     68     69     70     1  0.0000000  1.6038667  3
     66     82     84     85     1  0.0000000  0.6508444  3
     65     63     66     67     1  0.0000000  0.6508444  3
     65     63     66     68     1  0.0000000  1.0460000  1
     65     63     66     68     1  0.0000000  0.0000000  3
     65     63     66     82     1  0.0000000  0.6508444  3
     64     63     66     67     1  0.0000000  0.6508444  3
     64     63     66     68     1  0.0000000  1.0460000  1
     64     63     66     68     1  0.0000000  0.0000000  3
     64     63     66     82     1  0.0000000  0.6508444  3
     63     66     82     83     1  0.0000000  0.6508444  3
     62     63     66     67     1  0.0000000  1.0460000  1
     62     63     66     67     1  0.0000000  0.0000000  3
     59     62     63     64     1  0.0000000  1.6038667  3
     59     62     63     65     1  0.0000000  1.6038667  3
    115    114    112    118     1  0.0000000  1.0460000  1
    115    114    112    118     1  0.0000000  0.0000000  3
    115    114    116    117     1  0.0000000  0.6973333  3
    114    112    118    119     1  0.0000000  1.0460000  1
    114    112    118    119     1  0.0000000  0.6694400  3
    113    112    114    115     1  0.0000000  0.6508444  3
    113    112    114    116     1  0.0000000  1.0460000  1
    113    112    114    116     1  0.0000000  0.0000000  3
    113    112    118    119     1  0.0000000  0.6973333  3
    112    114    116    117     1  0.0000000  1.0460000  1
    112    114    116    117     1  0.0000000  0.6694400  3
    109    108    110    111     1  180.0000771  5.6484000  2
    107    106    108    109     1  180.0000771  5.6484000  2
    105    104    106    107     1  180.0000771  9.1002000  2
    105    104    106    108     1  180.0000771  9.1002000  2
    104    106    108    109     1  180.0000771  5.6484000  2
    103    102    101    110     1  180.0000771  7.7404000  2
    103    102    104    105     1  180.0000771  27.8236000  2
    103    102    104    106     1  180.0000771  27.8236000  2
    101     99    114    115     1  0.0000000  0.6508444  3
    101    102    104    105     1  180.0000771  27.8236000  2
    101    110    108    109     1  180.0000771  5.6484000  2
    100     99    101    102     1  0.0000000  0.0000000  2
    100     99    101    110     1  0.0000000  0.0000000  2
    100     99    114    112     1  0.0000000  0.6508444  3
    100     99    114    115     1  0.0000000  0.6508444  3
    100     99    114    116     1  0.0000000  0.6508444  3
     99    101    102    103     1  180.0000771  7.7404000  2
     99    114    112    113     1  0.0000000  0.6508444  3
     99    114    116    117     1  0.0000000  1.0460000  1
     99    114    116    117     1  0.0000000  0.6694400  3
     98     96    112    113     1  0.0000000  1.0460000  1
     98     96    112    113     1  0.0000000  0.0000000  3
     98     99    114    115     1  0.0000000  1.0460000  1
     98     99    114    115     1  0.0000000  0.0000000  3
     97     96     98     99     1  0.0000000  1.6038667  3
     97     96    112    113     1  0.0000000  0.6508444  3
     97     96    112    114     1  0.0000000  0.6508444  3
     97     96    112    118     1  0.0000000  1.0460000  1
     97     96    112    118     1  0.0000000  0.0000000  3
     96     98     99    100     1  0.0000000  1.6038667  3
     96    112    114    115     1  0.0000000  0.6508444  3
     96    112    118    119     1  0.0000000  1.0460000  1
     96    112    118    119     1  0.0000000  0.6694400  3
     95     93     96     97     1  0.0000000  0.6508444  3
     95     93     96     98     1  0.0000000  1.0460000  1
     95     93     96     98     1  0.0000000  0.0000000  3
     95     93     96    112     1  0.0000000  0.6508444  3
     94     93     96     97     1  0.0000000  0.6508444  3
     94     93     96     98     1  0.0000000  1.0460000  1
     94     93     96     98     1  0.0000000  0.0000000  3
     94     93     96    112     1  0.0000000  0.6508444  3
     93     96    112    113     1  0.0000000  0.6508444  3
     92     93     96     97     1  0.0000000  1.0460000  1
     92     93     96     97     1  0.0000000  0.0000000  3
     89     92     93     94     1  0.0000000  1.6038667  3
     89     92     93     95     1  0.0000000  1.6038667  3
     16     20     18     19     4  180.0000771  4.1840000  2
     12     16     14     15     4  180.0000771  4.6024000  2
     11     14     12     13     4  180.0000771  4.6024000  2
     46     50     48     49     4  180.0000771  4.1840000  2
     42     46     44     45     4  180.0000771  4.6024000  2
     41     44     42     43     4  180.0000771  4.6024000  2
     76     80     78     79     4  180.0000771  4.1840000  2
     72     76     74     75     4  180.0000771  4.6024000  2
     71     74     72     73     4  180.0000771  4.6024000  2
    106    110    108    109     4  180.0000771  4.1840000  2
    102    106    104    105     4  180.0000771  4.6024000  2
    101    104    102    103     4  180.0000771  4.6024000  2


[ moleculetype ]
; Name            nrexcl
Na+          3

[ atoms ]
;   nr       type  resnr residue  atom   cgnr    charge       mass  typeB    chargeB      massB
; residue    1 Na+ rtp Na+ q 1.0
    1        Na+      1    Na+    Na+      1 1.00000000  22.990000   ; qtot 1.000000


[ moleculetype ]
; Name            nrexcl
Cl-          3

[ atoms ]
;   nr       type  resnr residue  atom   cgnr    charge       mass  typeB    chargeB      massB
; residue    1 Cl- rtp Cl- q -1.0
    1        Cl-      1    Cl-    Cl-      1 -1.00000000  35.450000   ; qtot -1.000000


[ moleculetype ]
; Name            nrexcl
WAT          3

[ atoms ]
;   nr       type  resnr residue  atom   cgnr    charge       mass  typeB    chargeB      massB
; residue    1 WAT rtp WAT q 0.0
    1         OW      1    WAT      O      1 0.00000000  16.000000   ; qtot 0.000000
    2         HW      1    WAT     H1      2 0.52422000   1.008000   ; qtot 0.524220
    3         HW      1    WAT     H2      3 0.52422000   1.008000   ; qtot 1.048440
    4         EP      1    WAT    EPW      4 -1.04844000   0.000000   ; qtot 0.000000

#ifdef FLEXIBLE

[ bonds ]
;    ai     aj funct         c0         c1         c2         c3
      2      1     1   0.09572 462750.400000
      3      1     1   0.09572 462750.400000
      3      2     1   0.15136 462750.400000


#else

[ settles ]
; i     funct   doh     dhh
1     1   0.09572000   0.15136000

#endif

[ virtual_sites3 ]
; Site  from                   funct
4     1    2    3    1      0.131894  0.131894

[ exclusions ]
1  2  3  4
2  1  3  4
3  1  2  4
4  1  2  3

[ system ]
; Name
Generic title

[ molecules ]
; Compound       #mols
system1              1
Na+                  8
Cl-                  5
WAT               2013
