;
;   File topol.top  was generated
;   By user: sompriya (1002)
;   On host:raylab2-Precision-5860-Tower 
;   At date:Fri. December  5 14:23:34 2024 
;
;   This is a standalone topology file
;
;   Created by:
;   ParmEd:       convert.py, VERSION4.3.0 
;   Executable:   convert.py
;   Library dir:  /usr/local/gromacs/share/gromacs/top
;   Command line:
;     convert.py
;

[ defaults ]
; nbfunc        comb-rule       gen-pairs       fudgeLJ fudgeQQ
1               2               yes             0.5          0.83333333  

[ atomtypes ]
; name    at.num    mass    charge ptype  sigma      epsilon
HO             1   1.008000  0.00000000  A              0              0
OH             8  16.000000  0.00000000  A     0.30664734      0.8803136
CI             6  12.010000  0.00000000  A     0.33996695      0.4577296
H1             1   1.008000  0.00000000  A      0.2471353      0.0656888
CT             6  12.010000  0.00000000  A     0.33996695      0.4577296
OS             8  16.000000  0.00000000  A     0.30000123        0.71128
H2             1   1.008000  0.00000000  A     0.22931733      0.0656888
NR             7  14.010000  0.00000000  A     0.32890021        0.71128
C5             6  12.010000  0.00000000  A     0.33004056      0.2661024
H5             1   1.008000  0.00000000  A     0.24214627        0.06276
NB             7  14.010000  0.00000000  A     0.32890021        0.71128
CE             6  12.010000  0.00000000  A     0.33004056      0.2661024
CF             6  12.010000  0.00000000  A     0.33004056      0.2661024
N2             7  14.010000  0.00000000  A     0.33507057        0.71128
H              1   1.008000  0.00000000  A              0              0
ND             7  14.010000  0.00000000  A     0.32890021        0.71128
CQ             6  12.010000  0.00000000  A     0.33004056      0.2661024
OR             8  16.000000  0.00000000  A     0.31569887        0.71128
P             15  30.970000  0.00000000  A     0.37417746         0.8368
OQ             8  16.000000  0.00000000  A     0.31168983        0.87864
Na+           11  22.990000  0.00000000  A     0.24299263      0.1962296
Cl-           17  35.450000  0.00000000  A     0.40446802         0.6276
OW             8  16.000000  0.00000000  A     0.31649997     0.93654656
HW             1   1.008000  0.00000000  A              0              0
EP             0   0.000000  0.00000000  A              0              0


[ moleculetype ]
; Name            nrexcl
system1          3

[ atoms ]
;   nr       type  resnr residue  atom   cgnr    charge       mass  typeB    chargeB      massB
; residue    1 A5 rtp A5 q -0.3
    1         HO      1     A5   HO5'      1 0.42950000   1.008000   ; qtot 0.429500
    2         OH      1     A5    O5'      2 -0.62230000  16.000000   ; qtot -0.192800
    3         CI      1     A5    C5'      3 0.05580000  12.010000   ; qtot -0.137000
    4         H1      1     A5    H5'      4 0.06790000   1.008000   ; qtot -0.069100
    5         H1      1     A5   H5''      5 0.06790000   1.008000   ; qtot -0.001200
    6         CT      1     A5    C4'      6 0.10650000  12.010000   ; qtot 0.105300
    7         H1      1     A5    H4'      7 0.11740000   1.008000   ; qtot 0.222700
    8         OS      1     A5    O4'      8 -0.35480000  16.000000   ; qtot -0.132100
    9         CT      1     A5    C1'      9 0.03940000  12.010000   ; qtot -0.092700
   10         H2      1     A5    H1'     10 0.20070000   1.008000   ; qtot 0.108000
   11         NR      1     A5     N9     11 -0.02510000  14.010000   ; qtot 0.082900
   12         C5      1     A5     C8     12 0.20060000  12.010000   ; qtot 0.283500
   13         H5      1     A5     H8     13 0.15530000   1.008000   ; qtot 0.438800
   14         NB      1     A5     N7     14 -0.60730000  14.010000   ; qtot -0.168500
   15         CE      1     A5     C5     15 0.05150000  12.010000   ; qtot -0.117000
   16         CF      1     A5     C6     16 0.70090000  12.010000   ; qtot 0.583900
   17         N2      1     A5     N6     17 -1.00880000  14.010000   ; qtot -0.424900
   18          H      1     A5    H61     18 0.47380000   1.008000   ; qtot 0.048900
   19          H      1     A5    H62     19 0.47380000   1.008000   ; qtot 0.522700
   20         ND      1     A5     N1     20 -0.79690000  14.010000   ; qtot -0.274200
   21         CQ      1     A5     C2     21 0.58750000  12.010000   ; qtot 0.313300
   22         H5      1     A5     H2     22 0.06500000   1.008000   ; qtot 0.378300
   23         ND      1     A5     N3     23 -0.69970000  14.010000   ; qtot -0.321400
   24         CE      1     A5     C4     24 0.30530000  12.010000   ; qtot -0.016100
   25         CT      1     A5    C3'     25 0.20220000  12.010000   ; qtot 0.186100
   26         H1      1     A5    H3'     26 0.06150000   1.008000   ; qtot 0.247600
   27         CT      1     A5    C2'     27 0.06700000  12.010000   ; qtot 0.314600
   28         H1      1     A5    H2'     28 0.09720000   1.008000   ; qtot 0.411800
   29         OH      1     A5    O2'     29 -0.61390000  16.000000   ; qtot -0.202100
   30         HO      1     A5   HO2'     30 0.41860000   1.008000   ; qtot 0.216500
   31         OR      1     A5    O3'     31 -0.52460000  16.000000   ; qtot -0.308100
; residue    2 A rtp A q -1.0
   32          P      2      A      P     32 1.16620000  30.970000   ; qtot 0.858100
   33         OQ      2      A    OP1     33 -0.77600000  16.000000   ; qtot 0.082100
   34         OQ      2      A    OP2     34 -0.77600000  16.000000   ; qtot -0.693900
   35         OR      2      A    O5'     35 -0.49890000  16.000000   ; qtot -1.192800
   36         CI      2      A    C5'     36 0.05580000  12.010000   ; qtot -1.137000
   37         H1      2      A    H5'     37 0.06790000   1.008000   ; qtot -1.069100
   38         H1      2      A   H5''     38 0.06790000   1.008000   ; qtot -1.001200
   39         CT      2      A    C4'     39 0.10650000  12.010000   ; qtot -0.894700
   40         H1      2      A    H4'     40 0.11740000   1.008000   ; qtot -0.777300
   41         OS      2      A    O4'     41 -0.35480000  16.000000   ; qtot -1.132100
   42         CT      2      A    C1'     42 0.03940000  12.010000   ; qtot -1.092700
   43         H2      2      A    H1'     43 0.20070000   1.008000   ; qtot -0.892000
   44         NR      2      A     N9     44 -0.02510000  14.010000   ; qtot -0.917100
   45         C5      2      A     C8     45 0.20060000  12.010000   ; qtot -0.716500
   46         H5      2      A     H8     46 0.15530000   1.008000   ; qtot -0.561200
   47         NB      2      A     N7     47 -0.60730000  14.010000   ; qtot -1.168500
   48         CE      2      A     C5     48 0.05150000  12.010000   ; qtot -1.117000
   49         CF      2      A     C6     49 0.70090000  12.010000   ; qtot -0.416100
   50         N2      2      A     N6     50 -1.00880000  14.010000   ; qtot -1.424900
   51          H      2      A    H61     51 0.47380000   1.008000   ; qtot -0.951100
   52          H      2      A    H62     52 0.47380000   1.008000   ; qtot -0.477300
   53         ND      2      A     N1     53 -0.79690000  14.010000   ; qtot -1.274200
   54         CQ      2      A     C2     54 0.58750000  12.010000   ; qtot -0.686700
   55         H5      2      A     H2     55 0.06500000   1.008000   ; qtot -0.621700
   56         ND      2      A     N3     56 -0.69970000  14.010000   ; qtot -1.321400
   57         CE      2      A     C4     57 0.30530000  12.010000   ; qtot -1.016100
   58         CT      2      A    C3'     58 0.20220000  12.010000   ; qtot -0.813900
   59         H1      2      A    H3'     59 0.06150000   1.008000   ; qtot -0.752400
   60         CT      2      A    C2'     60 0.06700000  12.010000   ; qtot -0.685400
   61         H1      2      A    H2'     61 0.09720000   1.008000   ; qtot -0.588200
   62         OH      2      A    O2'     62 -0.61390000  16.000000   ; qtot -1.202100
   63         HO      2      A   HO2'     63 0.41860000   1.008000   ; qtot -0.783500
   64         OR      2      A    O3'     64 -0.52460000  16.000000   ; qtot -1.308100
; residue    3 A rtp A q -1.0
   65          P      3      A      P     65 1.16620000  30.970000   ; qtot -0.141900
   66         OQ      3      A    OP1     66 -0.77600000  16.000000   ; qtot -0.917900
   67         OQ      3      A    OP2     67 -0.77600000  16.000000   ; qtot -1.693900
   68         OR      3      A    O5'     68 -0.49890000  16.000000   ; qtot -2.192800
   69         CI      3      A    C5'     69 0.05580000  12.010000   ; qtot -2.137000
   70         H1      3      A    H5'     70 0.06790000   1.008000   ; qtot -2.069100
   71         H1      3      A   H5''     71 0.06790000   1.008000   ; qtot -2.001200
   72         CT      3      A    C4'     72 0.10650000  12.010000   ; qtot -1.894700
   73         H1      3      A    H4'     73 0.11740000   1.008000   ; qtot -1.777300
   74         OS      3      A    O4'     74 -0.35480000  16.000000   ; qtot -2.132100
   75         CT      3      A    C1'     75 0.03940000  12.010000   ; qtot -2.092700
   76         H2      3      A    H1'     76 0.20070000   1.008000   ; qtot -1.892000
   77         NR      3      A     N9     77 -0.02510000  14.010000   ; qtot -1.917100
   78         C5      3      A     C8     78 0.20060000  12.010000   ; qtot -1.716500
   79         H5      3      A     H8     79 0.15530000   1.008000   ; qtot -1.561200
   80         NB      3      A     N7     80 -0.60730000  14.010000   ; qtot -2.168500
   81         CE      3      A     C5     81 0.05150000  12.010000   ; qtot -2.117000
   82         CF      3      A     C6     82 0.70090000  12.010000   ; qtot -1.416100
   83         N2      3      A     N6     83 -1.00880000  14.010000   ; qtot -2.424900
   84          H      3      A    H61     84 0.47380000   1.008000   ; qtot -1.951100
   85          H      3      A    H62     85 0.47380000   1.008000   ; qtot -1.477300
   86         ND      3      A     N1     86 -0.79690000  14.010000   ; qtot -2.274200
   87         CQ      3      A     C2     87 0.58750000  12.010000   ; qtot -1.686700
   88         H5      3      A     H2     88 0.06500000   1.008000   ; qtot -1.621700
   89         ND      3      A     N3     89 -0.69970000  14.010000   ; qtot -2.321400
   90         CE      3      A     C4     90 0.30530000  12.010000   ; qtot -2.016100
   91         CT      3      A    C3'     91 0.20220000  12.010000   ; qtot -1.813900
   92         H1      3      A    H3'     92 0.06150000   1.008000   ; qtot -1.752400
   93         CT      3      A    C2'     93 0.06700000  12.010000   ; qtot -1.685400
   94         H1      3      A    H2'     94 0.09720000   1.008000   ; qtot -1.588200
   95         OH      3      A    O2'     95 -0.61390000  16.000000   ; qtot -2.202100
   96         HO      3      A   HO2'     96 0.41860000   1.008000   ; qtot -1.783500
   97         OR      3      A    O3'     97 -0.52460000  16.000000   ; qtot -2.308100
; residue    4 A3 rtp A3 q -0.7
   98          P      4     A3      P     98 1.16620000  30.970000   ; qtot -1.141900
   99         OQ      4     A3    OP1     99 -0.77600000  16.000000   ; qtot -1.917900
  100         OQ      4     A3    OP2    100 -0.77600000  16.000000   ; qtot -2.693900
  101         OR      4     A3    O5'    101 -0.49890000  16.000000   ; qtot -3.192800
  102         CI      4     A3    C5'    102 0.05580000  12.010000   ; qtot -3.137000
  103         H1      4     A3    H5'    103 0.06790000   1.008000   ; qtot -3.069100
  104         H1      4     A3   H5''    104 0.06790000   1.008000   ; qtot -3.001200
  105         CT      4     A3    C4'    105 0.10650000  12.010000   ; qtot -2.894700
  106         H1      4     A3    H4'    106 0.11740000   1.008000   ; qtot -2.777300
  107         OS      4     A3    O4'    107 -0.35480000  16.000000   ; qtot -3.132100
  108         CT      4     A3    C1'    108 0.03940000  12.010000   ; qtot -3.092700
  109         H2      4     A3    H1'    109 0.20070000   1.008000   ; qtot -2.892000
  110         NR      4     A3     N9    110 -0.02510000  14.010000   ; qtot -2.917100
  111         C5      4     A3     C8    111 0.20060000  12.010000   ; qtot -2.716500
  112         H5      4     A3     H8    112 0.15530000   1.008000   ; qtot -2.561200
  113         NB      4     A3     N7    113 -0.60730000  14.010000   ; qtot -3.168500
  114         CE      4     A3     C5    114 0.05150000  12.010000   ; qtot -3.117000
  115         CF      4     A3     C6    115 0.70090000  12.010000   ; qtot -2.416100
  116         N2      4     A3     N6    116 -1.00880000  14.010000   ; qtot -3.424900
  117          H      4     A3    H61    117 0.47380000   1.008000   ; qtot -2.951100
  118          H      4     A3    H62    118 0.47380000   1.008000   ; qtot -2.477300
  119         ND      4     A3     N1    119 -0.79690000  14.010000   ; qtot -3.274200
  120         CQ      4     A3     C2    120 0.58750000  12.010000   ; qtot -2.686700
  121         H5      4     A3     H2    121 0.06500000   1.008000   ; qtot -2.621700
  122         ND      4     A3     N3    122 -0.69970000  14.010000   ; qtot -3.321400
  123         CE      4     A3     C4    123 0.30530000  12.010000   ; qtot -3.016100
  124         CT      4     A3    C3'    124 0.20220000  12.010000   ; qtot -2.813900
  125         H1      4     A3    H3'    125 0.06150000   1.008000   ; qtot -2.752400
  126         CT      4     A3    C2'    126 0.06700000  12.010000   ; qtot -2.685400
  127         H1      4     A3    H2'    127 0.09720000   1.008000   ; qtot -2.588200
  128         OH      4     A3    O2'    128 -0.61390000  16.000000   ; qtot -3.202100
  129         HO      4     A3   HO2'    129 0.41860000   1.008000   ; qtot -2.783500
  130         OH      4     A3    O3'    130 -0.65410000  16.000000   ; qtot -3.437600
  131         HO      4     A3   HO3'    131 0.43760000   1.008000   ; qtot -3.000000

[ bonds ]
;    ai     aj funct         c0         c1         c2         c3
     31     32     1   0.16100 192464.000000
     27     29     1   0.14100 267776.000000
     25     27     1   0.15260 259408.000000
     25     31     1   0.14100 267776.000000
     23     24     1   0.13540 385764.800000
     21     23     1   0.13240 420073.600000
     20     21     1   0.13240 420073.600000
     16     17     1   0.13400 402500.800000
     16     20     1   0.13390 404174.400000
     15     16     1   0.14040 392459.200000
     15     24     1   0.13700 435136.000000
     14     15     1   0.13910 346435.200000
     12     14     1   0.13040 442667.200000
     11     12     1   0.13710 368192.000000
     11     24     1   0.13740 364844.800000
      9     11     1   0.14750 282001.600000
      9     27     1   0.15260 259408.000000
      8      9     1   0.14100 267776.000000
      6      8     1   0.14100 267776.000000
      6     25     1   0.15260 259408.000000
      3      6     1   0.15260 259408.000000
      2      3     1   0.14100 267776.000000
     64     65     1   0.16100 192464.000000
     60     62     1   0.14100 267776.000000
     58     60     1   0.15260 259408.000000
     58     64     1   0.14100 267776.000000
     56     57     1   0.13540 385764.800000
     54     56     1   0.13240 420073.600000
     53     54     1   0.13240 420073.600000
     49     50     1   0.13400 402500.800000
     49     53     1   0.13390 404174.400000
     48     49     1   0.14040 392459.200000
     48     57     1   0.13700 435136.000000
     47     48     1   0.13910 346435.200000
     45     47     1   0.13040 442667.200000
     44     45     1   0.13710 368192.000000
     44     57     1   0.13740 364844.800000
     42     44     1   0.14750 282001.600000
     42     60     1   0.15260 259408.000000
     41     42     1   0.14100 267776.000000
     39     41     1   0.14100 267776.000000
     39     58     1   0.15260 259408.000000
     36     39     1   0.15260 259408.000000
     35     36     1   0.14100 267776.000000
     32     33     1   0.14800 439320.000000
     32     34     1   0.14800 439320.000000
     32     35     1   0.16100 192464.000000
     97     98     1   0.16100 192464.000000
     93     95     1   0.14100 267776.000000
     91     93     1   0.15260 259408.000000
     91     97     1   0.14100 267776.000000
     89     90     1   0.13540 385764.800000
     87     89     1   0.13240 420073.600000
     86     87     1   0.13240 420073.600000
     82     83     1   0.13400 402500.800000
     82     86     1   0.13390 404174.400000
     81     82     1   0.14040 392459.200000
     81     90     1   0.13700 435136.000000
     80     81     1   0.13910 346435.200000
     78     80     1   0.13040 442667.200000
     77     78     1   0.13710 368192.000000
     77     90     1   0.13740 364844.800000
     75     77     1   0.14750 282001.600000
     75     93     1   0.15260 259408.000000
     74     75     1   0.14100 267776.000000
     72     74     1   0.14100 267776.000000
     72     91     1   0.15260 259408.000000
     69     72     1   0.15260 259408.000000
     68     69     1   0.14100 267776.000000
     65     66     1   0.14800 439320.000000
     65     67     1   0.14800 439320.000000
     65     68     1   0.16100 192464.000000
    126    128     1   0.14100 267776.000000
    124    126     1   0.15260 259408.000000
    124    130     1   0.14100 267776.000000
    122    123     1   0.13540 385764.800000
    120    122     1   0.13240 420073.600000
    119    120     1   0.13240 420073.600000
    115    116     1   0.13400 402500.800000
    115    119     1   0.13390 404174.400000
    114    115     1   0.14040 392459.200000
    114    123     1   0.13700 435136.000000
    113    114     1   0.13910 346435.200000
    111    113     1   0.13040 442667.200000
    110    111     1   0.13710 368192.000000
    110    123     1   0.13740 364844.800000
    108    110     1   0.14750 282001.600000
    108    126     1   0.15260 259408.000000
    107    108     1   0.14100 267776.000000
    105    107     1   0.14100 267776.000000
    105    124     1   0.15260 259408.000000
    102    105     1   0.15260 259408.000000
    101    102     1   0.14100 267776.000000
     98     99     1   0.14800 439320.000000
     98    100     1   0.14800 439320.000000
     98    101     1   0.16100 192464.000000
     29     30     1   0.09600 462750.400000
     27     28     1   0.10900 284512.000000
     25     26     1   0.10900 284512.000000
     21     22     1   0.10800 307105.600000
     17     18     1   0.10100 363171.200000
     17     19     1   0.10100 363171.200000
     12     13     1   0.10800 307105.600000
      9     10     1   0.10900 284512.000000
      6      7     1   0.10900 284512.000000
      3      4     1   0.10900 284512.000000
      3      5     1   0.10900 284512.000000
      1      2     1   0.09600 462750.400000
     62     63     1   0.09600 462750.400000
     60     61     1   0.10900 284512.000000
     58     59     1   0.10900 284512.000000
     54     55     1   0.10800 307105.600000
     50     51     1   0.10100 363171.200000
     50     52     1   0.10100 363171.200000
     45     46     1   0.10800 307105.600000
     42     43     1   0.10900 284512.000000
     39     40     1   0.10900 284512.000000
     36     37     1   0.10900 284512.000000
     36     38     1   0.10900 284512.000000
     95     96     1   0.09600 462750.400000
     93     94     1   0.10900 284512.000000
     91     92     1   0.10900 284512.000000
     87     88     1   0.10800 307105.600000
     83     84     1   0.10100 363171.200000
     83     85     1   0.10100 363171.200000
     78     79     1   0.10800 307105.600000
     75     76     1   0.10900 284512.000000
     72     73     1   0.10900 284512.000000
     69     70     1   0.10900 284512.000000
     69     71     1   0.10900 284512.000000
    130    131     1   0.09600 462750.400000
    128    129     1   0.09600 462750.400000
    126    127     1   0.10900 284512.000000
    124    125     1   0.10900 284512.000000
    120    121     1   0.10800 307105.600000
    116    117     1   0.10100 363171.200000
    116    118     1   0.10100 363171.200000
    111    112     1   0.10800 307105.600000
    108    109     1   0.10900 284512.000000
    105    106     1   0.10900 284512.000000
    102    103     1   0.10900 284512.000000
    102    104     1   0.10900 284512.000000

[ pairs ]
;    ai     aj funct         c0         c1         c2         c3
     31     36     1
     29     31     1
     27     32     1
     25     33     1
     25     34     1
     25     35     1
     24     27     1
     20     24     1
     17     24     1
     17     21     1
     16     23     1
     15     21     1
     14     17     1
     14     20     1
     14     23     1
     12     27     1
     12     23     1
     12     16     1
     11     25     1
     11     29     1
     11     16     1
     11     21     1
      9     14     1
      9     15     1
      9     23     1
      9     31     1
      8     31     1
      8     12     1
      8     24     1
      8     29     1
      6     11     1
      6     29     1
      6     32     1
      3      9     1
      3     27     1
      3     31     1
      2      8     1
      2     25     1
     64     69     1
     62     64     1
     60     65     1
     58     66     1
     58     67     1
     58     68     1
     57     60     1
     53     57     1
     50     57     1
     50     54     1
     49     56     1
     48     54     1
     47     50     1
     47     53     1
     47     56     1
     45     60     1
     45     56     1
     45     49     1
     44     58     1
     44     62     1
     44     49     1
     44     54     1
     42     47     1
     42     48     1
     42     56     1
     42     64     1
     41     64     1
     41     45     1
     41     57     1
     41     62     1
     39     44     1
     39     62     1
     39     65     1
     36     42     1
     36     60     1
     36     64     1
     35     41     1
     35     58     1
     34     36     1
     33     36     1
     32     39     1
     97    102     1
     95     97     1
     93     98     1
     91     99     1
     91    100     1
     91    101     1
     90     93     1
     86     90     1
     83     90     1
     83     87     1
     82     89     1
     81     87     1
     80     83     1
     80     86     1
     80     89     1
     78     93     1
     78     89     1
     78     82     1
     77     91     1
     77     95     1
     77     82     1
     77     87     1
     75     80     1
     75     81     1
     75     89     1
     75     97     1
     74     97     1
     74     78     1
     74     90     1
     74     95     1
     72     77     1
     72     95     1
     72     98     1
     69     75     1
     69     93     1
     69     97     1
     68     74     1
     68     91     1
     67     69     1
     66     69     1
     65     72     1
    128    130     1
    123    126     1
    119    123     1
    116    123     1
    116    120     1
    115    122     1
    114    120     1
    113    116     1
    113    119     1
    113    122     1
    111    126     1
    111    122     1
    111    115     1
    110    124     1
    110    128     1
    110    115     1
    110    120     1
    108    113     1
    108    114     1
    108    122     1
    108    130     1
    107    130     1
    107    111     1
    107    123     1
    107    128     1
    105    110     1
    105    128     1
    102    108     1
    102    126     1
    102    130     1
    101    107     1
    101    124     1
    100    102     1
     99    102     1
     98    105     1
     28     31     1
     28     30     1
     26     28     1
     26     29     1
     26     32     1
     25     30     1
     22     24     1
     19     20     1
     18     20     1
     16     22     1
     15     18     1
     15     19     1
     13     24     1
     13     15     1
     11     28     1
     10     12     1
     10     24     1
     10     25     1
     10     28     1
     10     29     1
      9     13     1
      9     26     1
      9     30     1
      8     26     1
      8     28     1
      7      9     1
      7     26     1
      7     27     1
      7     31     1
      6     10     1
      6     28     1
      5      7     1
      5      8     1
      5     25     1
      4      7     1
      4      8     1
      4     25     1
      3     26     1
      2      7     1
      1      4     1
      1      5     1
      1      6     1
     61     64     1
     61     63     1
     59     61     1
     59     62     1
     59     65     1
     58     63     1
     55     57     1
     52     53     1
     51     53     1
     49     55     1
     48     51     1
     48     52     1
     46     57     1
     46     48     1
     44     61     1
     43     45     1
     43     57     1
     43     58     1
     43     61     1
     43     62     1
     42     46     1
     42     59     1
     42     63     1
     41     59     1
     41     61     1
     40     42     1
     40     59     1
     40     60     1
     40     64     1
     39     43     1
     39     61     1
     38     40     1
     38     41     1
     38     58     1
     37     40     1
     37     41     1
     37     58     1
     36     59     1
     35     40     1
     32     37     1
     32     38     1
     94     97     1
     94     96     1
     92     94     1
     92     95     1
     92     98     1
     91     96     1
     88     90     1
     85     86     1
     84     86     1
     82     88     1
     81     84     1
     81     85     1
     79     90     1
     79     81     1
     77     94     1
     76     78     1
     76     90     1
     76     91     1
     76     94     1
     76     95     1
     75     79     1
     75     92     1
     75     96     1
     74     92     1
     74     94     1
     73     75     1
     73     92     1
     73     93     1
     73     97     1
     72     76     1
     72     94     1
     71     73     1
     71     74     1
     71     91     1
     70     73     1
     70     74     1
     70     91     1
     69     92     1
     68     73     1
     65     70     1
     65     71     1
    127    130     1
    127    129     1
    126    131     1
    125    127     1
    125    128     1
    125    131     1
    124    129     1
    121    123     1
    118    119     1
    117    119     1
    115    121     1
    114    117     1
    114    118     1
    112    123     1
    112    114     1
    110    127     1
    109    111     1
    109    123     1
    109    124     1
    109    127     1
    109    128     1
    108    112     1
    108    125     1
    108    129     1
    107    125     1
    107    127     1
    106    108     1
    106    125     1
    106    126     1
    106    130     1
    105    109     1
    105    127     1
    105    131     1
    104    106     1
    104    107     1
    104    124     1
    103    106     1
    103    107     1
    103    124     1
    102    125     1
    101    106     1
     98    103     1
     98    104     1

[ angles ]
;    ai     aj     ak funct         c0         c1         c2         c3
     31     32     33     1   108.2300464 836.800000
     31     32     34     1   108.2300464 836.800000
     31     32     35     1   102.6000440 376.560000
     27     25     31     1   109.5000469 418.400000
     25     27     29     1   109.5000469 418.400000
     25     31     32     1   120.5000516 836.800000
     21     23     24     1   111.0000476 585.760000
     20     21     23     1   129.1000553 585.760000
     17     16     20     1   119.3000511 585.760000
     16     15     24     1   117.3000503 527.184000
     16     20     21     1   118.6000508 585.760000
     15     16     17     1   123.5000529 585.760000
     15     16     20     1   117.3000503 585.760000
     15     24     23     1   127.7000547 585.760000
     14     15     16     1   132.4000567 585.760000
     14     15     24     1   110.4000473 585.760000
     12     11     24     1   105.4000452 585.760000
     12     14     15     1   103.8000445 585.760000
     11      9     27     1   109.5000469 418.400000
     11     12     14     1   113.9000488 585.760000
     11     24     15     1   106.2000455 585.760000
     11     24     23     1   126.2000541 585.760000
      9     11     12     1   128.8000552 585.760000
      9     11     24     1   125.8000539 585.760000
      9     27     25     1   109.5000469 334.720000
      9     27     29     1   109.5000469 418.400000
      8      6     25     1   109.5000469 418.400000
      8      9     11     1   109.5000469 418.400000
      8      9     27     1   109.5000469 418.400000
      6      8      9     1   109.5000469 502.080000
      6     25     27     1   109.5000469 334.720000
      6     25     31     1   109.5000469 418.400000
      3      6      8     1   109.5000469 418.400000
      3      6     25     1   109.5000469 334.720000
      2      3      6     1   109.5000469 418.400000
     64     65     66     1   108.2300464 836.800000
     64     65     67     1   108.2300464 836.800000
     64     65     68     1   102.6000440 376.560000
     60     58     64     1   109.5000469 418.400000
     58     60     62     1   109.5000469 418.400000
     58     64     65     1   120.5000516 836.800000
     54     56     57     1   111.0000476 585.760000
     53     54     56     1   129.1000553 585.760000
     50     49     53     1   119.3000511 585.760000
     49     48     57     1   117.3000503 527.184000
     49     53     54     1   118.6000508 585.760000
     48     49     50     1   123.5000529 585.760000
     48     49     53     1   117.3000503 585.760000
     48     57     56     1   127.7000547 585.760000
     47     48     49     1   132.4000567 585.760000
     47     48     57     1   110.4000473 585.760000
     45     44     57     1   105.4000452 585.760000
     45     47     48     1   103.8000445 585.760000
     44     42     60     1   109.5000469 418.400000
     44     45     47     1   113.9000488 585.760000
     44     57     48     1   106.2000455 585.760000
     44     57     56     1   126.2000541 585.760000
     42     44     45     1   128.8000552 585.760000
     42     44     57     1   125.8000539 585.760000
     42     60     58     1   109.5000469 334.720000
     42     60     62     1   109.5000469 418.400000
     41     39     58     1   109.5000469 418.400000
     41     42     44     1   109.5000469 418.400000
     41     42     60     1   109.5000469 418.400000
     39     41     42     1   109.5000469 502.080000
     39     58     60     1   109.5000469 334.720000
     39     58     64     1   109.5000469 418.400000
     36     39     41     1   109.5000469 418.400000
     36     39     58     1   109.5000469 334.720000
     35     36     39     1   109.5000469 418.400000
     34     32     35     1   108.2300464 836.800000
     33     32     34     1   119.9000514 1171.520000
     33     32     35     1   108.2300464 836.800000
     32     35     36     1   120.5000516 836.800000
     97     98     99     1   108.2300464 836.800000
     97     98    100     1   108.2300464 836.800000
     97     98    101     1   102.6000440 376.560000
     93     91     97     1   109.5000469 418.400000
     91     93     95     1   109.5000469 418.400000
     91     97     98     1   120.5000516 836.800000
     87     89     90     1   111.0000476 585.760000
     86     87     89     1   129.1000553 585.760000
     83     82     86     1   119.3000511 585.760000
     82     81     90     1   117.3000503 527.184000
     82     86     87     1   118.6000508 585.760000
     81     82     83     1   123.5000529 585.760000
     81     82     86     1   117.3000503 585.760000
     81     90     89     1   127.7000547 585.760000
     80     81     82     1   132.4000567 585.760000
     80     81     90     1   110.4000473 585.760000
     78     77     90     1   105.4000452 585.760000
     78     80     81     1   103.8000445 585.760000
     77     75     93     1   109.5000469 418.400000
     77     78     80     1   113.9000488 585.760000
     77     90     81     1   106.2000455 585.760000
     77     90     89     1   126.2000541 585.760000
     75     77     78     1   128.8000552 585.760000
     75     77     90     1   125.8000539 585.760000
     75     93     91     1   109.5000469 334.720000
     75     93     95     1   109.5000469 418.400000
     74     72     91     1   109.5000469 418.400000
     74     75     77     1   109.5000469 418.400000
     74     75     93     1   109.5000469 418.400000
     72     74     75     1   109.5000469 502.080000
     72     91     93     1   109.5000469 334.720000
     72     91     97     1   109.5000469 418.400000
     69     72     74     1   109.5000469 418.400000
     69     72     91     1   109.5000469 334.720000
     68     69     72     1   109.5000469 418.400000
     67     65     68     1   108.2300464 836.800000
     66     65     67     1   119.9000514 1171.520000
     66     65     68     1   108.2300464 836.800000
     65     68     69     1   120.5000516 836.800000
    126    124    130     1   109.5000469 418.400000
    124    126    128     1   109.5000469 418.400000
    120    122    123     1   111.0000476 585.760000
    119    120    122     1   129.1000553 585.760000
    116    115    119     1   119.3000511 585.760000
    115    114    123     1   117.3000503 527.184000
    115    119    120     1   118.6000508 585.760000
    114    115    116     1   123.5000529 585.760000
    114    115    119     1   117.3000503 585.760000
    114    123    122     1   127.7000547 585.760000
    113    114    115     1   132.4000567 585.760000
    113    114    123     1   110.4000473 585.760000
    111    110    123     1   105.4000452 585.760000
    111    113    114     1   103.8000445 585.760000
    110    108    126     1   109.5000469 418.400000
    110    111    113     1   113.9000488 585.760000
    110    123    114     1   106.2000455 585.760000
    110    123    122     1   126.2000541 585.760000
    108    110    111     1   128.8000552 585.760000
    108    110    123     1   125.8000539 585.760000
    108    126    124     1   109.5000469 334.720000
    108    126    128     1   109.5000469 418.400000
    107    105    124     1   109.5000469 418.400000
    107    108    110     1   109.5000469 418.400000
    107    108    126     1   109.5000469 418.400000
    105    107    108     1   109.5000469 502.080000
    105    124    126     1   109.5000469 334.720000
    105    124    130     1   109.5000469 418.400000
    102    105    107     1   109.5000469 418.400000
    102    105    124     1   109.5000469 334.720000
    101    102    105     1   109.5000469 418.400000
    100     98    101     1   108.2300464 836.800000
     99     98    100     1   119.9000514 1171.520000
     99     98    101     1   108.2300464 836.800000
     98    101    102     1   120.5000516 836.800000
     28     27     29     1   109.5000469 418.400000
     27     29     30     1   108.5000465 460.240000
     26     25     27     1   109.5000469 418.400000
     26     25     31     1   109.5000469 418.400000
     25     27     28     1   109.5000469 418.400000
     22     21     23     1   115.4500498 418.400000
     20     21     22     1   115.4500498 418.400000
     18     17     19     1   120.0000514 292.880000
     16     17     18     1   120.0000514 418.400000
     16     17     19     1   120.0000514 418.400000
     13     12     14     1   123.0500530 418.400000
     11     12     13     1   123.0500530 418.400000
     10      9     11     1   109.5000469 418.400000
     10      9     27     1   109.5000469 418.400000
      9     27     28     1   109.5000469 418.400000
      8      9     10     1   109.5000469 418.400000
      7      6      8     1   109.5000469 418.400000
      7      6     25     1   109.5000469 418.400000
      6     25     26     1   109.5000469 418.400000
      5      3      6     1   109.5000469 418.400000
      4      3      5     1   109.5000469 292.880000
      4      3      6     1   109.5000469 418.400000
      3      6      7     1   109.5000469 418.400000
      2      3      4     1   109.5000469 418.400000
      2      3      5     1   109.5000469 418.400000
      1      2      3     1   108.5000465 460.240000
     61     60     62     1   109.5000469 418.400000
     60     62     63     1   108.5000465 460.240000
     59     58     60     1   109.5000469 418.400000
     59     58     64     1   109.5000469 418.400000
     58     60     61     1   109.5000469 418.400000
     55     54     56     1   115.4500498 418.400000
     53     54     55     1   115.4500498 418.400000
     51     50     52     1   120.0000514 292.880000
     49     50     51     1   120.0000514 418.400000
     49     50     52     1   120.0000514 418.400000
     46     45     47     1   123.0500530 418.400000
     44     45     46     1   123.0500530 418.400000
     43     42     44     1   109.5000469 418.400000
     43     42     60     1   109.5000469 418.400000
     42     60     61     1   109.5000469 418.400000
     41     42     43     1   109.5000469 418.400000
     40     39     41     1   109.5000469 418.400000
     40     39     58     1   109.5000469 418.400000
     39     58     59     1   109.5000469 418.400000
     38     36     39     1   109.5000469 418.400000
     37     36     38     1   109.5000469 292.880000
     37     36     39     1   109.5000469 418.400000
     36     39     40     1   109.5000469 418.400000
     35     36     37     1   109.5000469 418.400000
     35     36     38     1   109.5000469 418.400000
     94     93     95     1   109.5000469 418.400000
     93     95     96     1   108.5000465 460.240000
     92     91     93     1   109.5000469 418.400000
     92     91     97     1   109.5000469 418.400000
     91     93     94     1   109.5000469 418.400000
     88     87     89     1   115.4500498 418.400000
     86     87     88     1   115.4500498 418.400000
     84     83     85     1   120.0000514 292.880000
     82     83     84     1   120.0000514 418.400000
     82     83     85     1   120.0000514 418.400000
     79     78     80     1   123.0500530 418.400000
     77     78     79     1   123.0500530 418.400000
     76     75     77     1   109.5000469 418.400000
     76     75     93     1   109.5000469 418.400000
     75     93     94     1   109.5000469 418.400000
     74     75     76     1   109.5000469 418.400000
     73     72     74     1   109.5000469 418.400000
     73     72     91     1   109.5000469 418.400000
     72     91     92     1   109.5000469 418.400000
     71     69     72     1   109.5000469 418.400000
     70     69     71     1   109.5000469 292.880000
     70     69     72     1   109.5000469 418.400000
     69     72     73     1   109.5000469 418.400000
     68     69     70     1   109.5000469 418.400000
     68     69     71     1   109.5000469 418.400000
    127    126    128     1   109.5000469 418.400000
    126    128    129     1   108.5000465 460.240000
    125    124    126     1   109.5000469 418.400000
    125    124    130     1   109.5000469 418.400000
    124    126    127     1   109.5000469 418.400000
    124    130    131     1   108.5000465 460.240000
    121    120    122     1   115.4500498 418.400000
    119    120    121     1   115.4500498 418.400000
    117    116    118     1   120.0000514 292.880000
    115    116    117     1   120.0000514 418.400000
    115    116    118     1   120.0000514 418.400000
    112    111    113     1   123.0500530 418.400000
    110    111    112     1   123.0500530 418.400000
    109    108    110     1   109.5000469 418.400000
    109    108    126     1   109.5000469 418.400000
    108    126    127     1   109.5000469 418.400000
    107    108    109     1   109.5000469 418.400000
    106    105    107     1   109.5000469 418.400000
    106    105    124     1   109.5000469 418.400000
    105    124    125     1   109.5000469 418.400000
    104    102    105     1   109.5000469 418.400000
    103    102    104     1   109.5000469 292.880000
    103    102    105     1   109.5000469 418.400000
    102    105    106     1   109.5000469 418.400000
    101    102    103     1   109.5000469 418.400000
    101    102    104     1   109.5000469 418.400000

[ dihedrals ]
;    ai     aj     ak     al funct         c0         c1         c2         c3         c4         c5
     31     32     35     36     1  31.7950936  0.7747973  1
     31     32     35     36     1  351.9597510  5.2573257  2
     31     32     35     36     1  357.2476330  1.4847259  3
     29     27     25     31     1  0.0000000  4.9162000  2
     29     27     25     31     1  0.0000000  0.6024960  3
     27     25     31     32     1  0.0000000  1.6038667  3
     25     31     32     33     1  0.0000000  1.0460000  3
     25     31     32     34     1  0.0000000  1.0460000  3
     25     31     32     35     1  333.9801429  -1.1598843  1
     25     31     32     35     1  2.9800013  4.4603365  2
     25     31     32     35     1  29.4700126  0.7878430  3
     24     11      9     27     1  0.0000000  0.0000000  2
     20     16     15     24     1  180.0000771  14.6440000  2
     20     21     23     24     1  180.0000771  28.4512000  2
     17     16     15     24     1  180.0000771  14.6440000  2
     17     16     20     21     1  180.0000771  20.0832000  2
     16     15     24     23     1  180.0000771  22.8028000  2
     16     20     21     23     1  180.0000771  28.4512000  2
     15     16     20     21     1  180.0000771  20.0832000  2
     15     24     23     21     1  180.0000771  17.3636000  2
     14     12     11     24     1  180.0000771  7.1128000  2
     14     15     16     17     1  180.0000771  14.6440000  2
     14     15     16     20     1  180.0000771  14.6440000  2
     14     15     24     23     1  180.0000771  22.8028000  2
     12     11      9     27     1  0.0000000  0.0000000  2
     12     11     24     15     1  180.0000771  6.9036000  2
     12     11     24     23     1  180.0000771  6.9036000  2
     12     14     15     16     1  180.0000771  10.6692000  2
     12     14     15     24     1  180.0000771  10.6692000  2
     11      9     27     25     1  0.0000000  0.6508444  3
     11      9     27     29     1  0.0000000  0.6508444  3
     11     12     14     15     1  180.0000771  41.8400000  2
     11     24     15     14     1  180.0000771  22.8028000  2
     11     24     15     16     1  180.0000771  22.8028000  2
     11     24     23     21     1  180.0000771  17.3636000  2
      9      8      6     25     1  180.0000771  0.4184000  2
      9      8      6     25     1  0.0000000  1.6024720  3
      9     11     12     14     1  180.0000771  7.1128000  2
      9     11     24     15     1  180.0000771  6.9036000  2
      9     11     24     23     1  180.0000771  6.9036000  2
      9     27     25     31     1  0.0000000  0.6508444  3
      8      6     25     27     1  0.0000000  0.6508444  3
      8      6     25     31     1  0.0000000  4.9162000  2
      8      6     25     31     1  0.0000000  0.6024960  3
      8      9     11     12     1  98.2900423  3.1435856  1
      8      9     11     12     1  328.5601409  4.5857268  2
      8      9     11     12     1  50.5200217  -1.7297325  3
      8      9     11     12     1  40.9900176  0.2709140  4
      8      9     11     24     1  0.0000000  0.0000000  2
      8      9     27     25     1  0.0000000  0.6508444  3
      8      9     27     29     1  0.0000000  4.9162000  2
      8      9     27     29     1  0.0000000  0.6024960  3
      6      8      9     11     1  0.0000000  2.7196000  2
      6      8      9     11     1  0.0000000  1.6024720  3
      6      8      9     27     1  180.0000771  0.4184000  2
      6      8      9     27     1  0.0000000  1.6024720  3
      6     25     27      9     1  180.0000771  0.8368000  1
      6     25     27      9     1  180.0000771  1.0460000  2
      6     25     27      9     1  0.0000000  0.7531200  3
      6     25     27     29     1  0.0000000  0.6508444  3
      6     25     31     32     1  0.0000000  1.6038667  3
      3      6      8      9     1  180.0000771  0.4184000  2
      3      6      8      9     1  0.0000000  1.6024720  3
      3      6     25     27     1  180.0000771  0.8368000  1
      3      6     25     27     1  180.0000771  1.0460000  2
      3      6     25     27     1  0.0000000  0.7531200  3
      3      6     25     31     1  0.0000000  0.6508444  3
      2      3      6      8     1  0.0000000  0.6508444  3
      2      3      6     25     1  299.6901286  -1.5060182  1
      2      3      6     25     1  274.1001175  5.1381528  2
      2      3      6     25     1  342.2101465  3.2676873  3
     64     65     68     69     1  31.7950936  0.7747973  1
     64     65     68     69     1  351.9597510  5.2573257  2
     64     65     68     69     1  357.2476330  1.4847259  3
     62     60     58     64     1  0.0000000  4.9162000  2
     62     60     58     64     1  0.0000000  0.6024960  3
     60     58     64     65     1  0.0000000  1.6038667  3
     58     64     65     66     1  0.0000000  1.0460000  3
     58     64     65     67     1  0.0000000  1.0460000  3
     58     64     65     68     1  333.9801429  -1.1598843  1
     58     64     65     68     1  2.9800013  4.4603365  2
     58     64     65     68     1  29.4700126  0.7878430  3
     57     44     42     60     1  0.0000000  0.0000000  2
     53     49     48     57     1  180.0000771  14.6440000  2
     53     54     56     57     1  180.0000771  28.4512000  2
     50     49     48     57     1  180.0000771  14.6440000  2
     50     49     53     54     1  180.0000771  20.0832000  2
     49     48     57     56     1  180.0000771  22.8028000  2
     49     53     54     56     1  180.0000771  28.4512000  2
     48     49     53     54     1  180.0000771  20.0832000  2
     48     57     56     54     1  180.0000771  17.3636000  2
     47     45     44     57     1  180.0000771  7.1128000  2
     47     48     49     50     1  180.0000771  14.6440000  2
     47     48     49     53     1  180.0000771  14.6440000  2
     47     48     57     56     1  180.0000771  22.8028000  2
     45     44     42     60     1  0.0000000  0.0000000  2
     45     44     57     48     1  180.0000771  6.9036000  2
     45     44     57     56     1  180.0000771  6.9036000  2
     45     47     48     49     1  180.0000771  10.6692000  2
     45     47     48     57     1  180.0000771  10.6692000  2
     44     42     60     58     1  0.0000000  0.6508444  3
     44     42     60     62     1  0.0000000  0.6508444  3
     44     45     47     48     1  180.0000771  41.8400000  2
     44     57     48     47     1  180.0000771  22.8028000  2
     44     57     48     49     1  180.0000771  22.8028000  2
     44     57     56     54     1  180.0000771  17.3636000  2
     42     41     39     58     1  180.0000771  0.4184000  2
     42     41     39     58     1  0.0000000  1.6024720  3
     42     44     45     47     1  180.0000771  7.1128000  2
     42     44     57     48     1  180.0000771  6.9036000  2
     42     44     57     56     1  180.0000771  6.9036000  2
     42     60     58     64     1  0.0000000  0.6508444  3
     41     39     58     60     1  0.0000000  0.6508444  3
     41     39     58     64     1  0.0000000  4.9162000  2
     41     39     58     64     1  0.0000000  0.6024960  3
     41     42     44     45     1  98.2900423  3.1435856  1
     41     42     44     45     1  328.5601409  4.5857268  2
     41     42     44     45     1  50.5200217  -1.7297325  3
     41     42     44     45     1  40.9900176  0.2709140  4
     41     42     44     57     1  0.0000000  0.0000000  2
     41     42     60     58     1  0.0000000  0.6508444  3
     41     42     60     62     1  0.0000000  4.9162000  2
     41     42     60     62     1  0.0000000  0.6024960  3
     39     41     42     44     1  0.0000000  2.7196000  2
     39     41     42     44     1  0.0000000  1.6024720  3
     39     41     42     60     1  180.0000771  0.4184000  2
     39     41     42     60     1  0.0000000  1.6024720  3
     39     58     60     42     1  180.0000771  0.8368000  1
     39     58     60     42     1  180.0000771  1.0460000  2
     39     58     60     42     1  0.0000000  0.7531200  3
     39     58     60     62     1  0.0000000  0.6508444  3
     39     58     64     65     1  0.0000000  1.6038667  3
     36     39     41     42     1  180.0000771  0.4184000  2
     36     39     41     42     1  0.0000000  1.6024720  3
     36     39     58     60     1  180.0000771  0.8368000  1
     36     39     58     60     1  180.0000771  1.0460000  2
     36     39     58     60     1  0.0000000  0.7531200  3
     36     39     58     64     1  0.0000000  0.6508444  3
     35     36     39     41     1  0.0000000  0.6508444  3
     35     36     39     58     1  299.6901286  -1.5060182  1
     35     36     39     58     1  274.1001175  5.1381528  2
     35     36     39     58     1  342.2101465  3.2676873  3
     34     32     35     36     1  0.0000000  1.0460000  3
     33     32     35     36     1  0.0000000  1.0460000  3
     32     35     36     39     1  0.0000000  1.6038667  3
     97     98    101    102     1  31.7950936  0.7747973  1
     97     98    101    102     1  351.9597510  5.2573257  2
     97     98    101    102     1  357.2476330  1.4847259  3
     95     93     91     97     1  0.0000000  4.9162000  2
     95     93     91     97     1  0.0000000  0.6024960  3
     93     91     97     98     1  0.0000000  1.6038667  3
     91     97     98     99     1  0.0000000  1.0460000  3
     91     97     98    100     1  0.0000000  1.0460000  3
     91     97     98    101     1  333.9801429  -1.1598843  1
     91     97     98    101     1  2.9800013  4.4603365  2
     91     97     98    101     1  29.4700126  0.7878430  3
     90     77     75     93     1  0.0000000  0.0000000  2
     86     82     81     90     1  180.0000771  14.6440000  2
     86     87     89     90     1  180.0000771  28.4512000  2
     83     82     81     90     1  180.0000771  14.6440000  2
     83     82     86     87     1  180.0000771  20.0832000  2
     82     81     90     89     1  180.0000771  22.8028000  2
     82     86     87     89     1  180.0000771  28.4512000  2
     81     82     86     87     1  180.0000771  20.0832000  2
     81     90     89     87     1  180.0000771  17.3636000  2
     80     78     77     90     1  180.0000771  7.1128000  2
     80     81     82     83     1  180.0000771  14.6440000  2
     80     81     82     86     1  180.0000771  14.6440000  2
     80     81     90     89     1  180.0000771  22.8028000  2
     78     77     75     93     1  0.0000000  0.0000000  2
     78     77     90     81     1  180.0000771  6.9036000  2
     78     77     90     89     1  180.0000771  6.9036000  2
     78     80     81     82     1  180.0000771  10.6692000  2
     78     80     81     90     1  180.0000771  10.6692000  2
     77     75     93     91     1  0.0000000  0.6508444  3
     77     75     93     95     1  0.0000000  0.6508444  3
     77     78     80     81     1  180.0000771  41.8400000  2
     77     90     81     80     1  180.0000771  22.8028000  2
     77     90     81     82     1  180.0000771  22.8028000  2
     77     90     89     87     1  180.0000771  17.3636000  2
     75     74     72     91     1  180.0000771  0.4184000  2
     75     74     72     91     1  0.0000000  1.6024720  3
     75     77     78     80     1  180.0000771  7.1128000  2
     75     77     90     81     1  180.0000771  6.9036000  2
     75     77     90     89     1  180.0000771  6.9036000  2
     75     93     91     97     1  0.0000000  0.6508444  3
     74     72     91     93     1  0.0000000  0.6508444  3
     74     72     91     97     1  0.0000000  4.9162000  2
     74     72     91     97     1  0.0000000  0.6024960  3
     74     75     77     78     1  98.2900423  3.1435856  1
     74     75     77     78     1  328.5601409  4.5857268  2
     74     75     77     78     1  50.5200217  -1.7297325  3
     74     75     77     78     1  40.9900176  0.2709140  4
     74     75     77     90     1  0.0000000  0.0000000  2
     74     75     93     91     1  0.0000000  0.6508444  3
     74     75     93     95     1  0.0000000  4.9162000  2
     74     75     93     95     1  0.0000000  0.6024960  3
     72     74     75     77     1  0.0000000  2.7196000  2
     72     74     75     77     1  0.0000000  1.6024720  3
     72     74     75     93     1  180.0000771  0.4184000  2
     72     74     75     93     1  0.0000000  1.6024720  3
     72     91     93     75     1  180.0000771  0.8368000  1
     72     91     93     75     1  180.0000771  1.0460000  2
     72     91     93     75     1  0.0000000  0.7531200  3
     72     91     93     95     1  0.0000000  0.6508444  3
     72     91     97     98     1  0.0000000  1.6038667  3
     69     72     74     75     1  180.0000771  0.4184000  2
     69     72     74     75     1  0.0000000  1.6024720  3
     69     72     91     93     1  180.0000771  0.8368000  1
     69     72     91     93     1  180.0000771  1.0460000  2
     69     72     91     93     1  0.0000000  0.7531200  3
     69     72     91     97     1  0.0000000  0.6508444  3
     68     69     72     74     1  0.0000000  0.6508444  3
     68     69     72     91     1  299.6901286  -1.5060182  1
     68     69     72     91     1  274.1001175  5.1381528  2
     68     69     72     91     1  342.2101465  3.2676873  3
     67     65     68     69     1  0.0000000  1.0460000  3
     66     65     68     69     1  0.0000000  1.0460000  3
     65     68     69     72     1  0.0000000  1.6038667  3
    128    126    124    130     1  0.0000000  4.9162000  2
    128    126    124    130     1  0.0000000  0.6024960  3
    123    110    108    126     1  0.0000000  0.0000000  2
    119    115    114    123     1  180.0000771  14.6440000  2
    119    120    122    123     1  180.0000771  28.4512000  2
    116    115    114    123     1  180.0000771  14.6440000  2
    116    115    119    120     1  180.0000771  20.0832000  2
    115    114    123    122     1  180.0000771  22.8028000  2
    115    119    120    122     1  180.0000771  28.4512000  2
    114    115    119    120     1  180.0000771  20.0832000  2
    114    123    122    120     1  180.0000771  17.3636000  2
    113    111    110    123     1  180.0000771  7.1128000  2
    113    114    115    116     1  180.0000771  14.6440000  2
    113    114    115    119     1  180.0000771  14.6440000  2
    113    114    123    122     1  180.0000771  22.8028000  2
    111    110    108    126     1  0.0000000  0.0000000  2
    111    110    123    114     1  180.0000771  6.9036000  2
    111    110    123    122     1  180.0000771  6.9036000  2
    111    113    114    115     1  180.0000771  10.6692000  2
    111    113    114    123     1  180.0000771  10.6692000  2
    110    108    126    124     1  0.0000000  0.6508444  3
    110    108    126    128     1  0.0000000  0.6508444  3
    110    111    113    114     1  180.0000771  41.8400000  2
    110    123    114    113     1  180.0000771  22.8028000  2
    110    123    114    115     1  180.0000771  22.8028000  2
    110    123    122    120     1  180.0000771  17.3636000  2
    108    107    105    124     1  180.0000771  0.4184000  2
    108    107    105    124     1  0.0000000  1.6024720  3
    108    110    111    113     1  180.0000771  7.1128000  2
    108    110    123    114     1  180.0000771  6.9036000  2
    108    110    123    122     1  180.0000771  6.9036000  2
    108    126    124    130     1  0.0000000  0.6508444  3
    107    105    124    126     1  0.0000000  0.6508444  3
    107    105    124    130     1  0.0000000  4.9162000  2
    107    105    124    130     1  0.0000000  0.6024960  3
    107    108    110    111     1  98.2900423  3.1435856  1
    107    108    110    111     1  328.5601409  4.5857268  2
    107    108    110    111     1  50.5200217  -1.7297325  3
    107    108    110    111     1  40.9900176  0.2709140  4
    107    108    110    123     1  0.0000000  0.0000000  2
    107    108    126    124     1  0.0000000  0.6508444  3
    107    108    126    128     1  0.0000000  4.9162000  2
    107    108    126    128     1  0.0000000  0.6024960  3
    105    107    108    110     1  0.0000000  2.7196000  2
    105    107    108    110     1  0.0000000  1.6024720  3
    105    107    108    126     1  180.0000771  0.4184000  2
    105    107    108    126     1  0.0000000  1.6024720  3
    105    124    126    108     1  180.0000771  0.8368000  1
    105    124    126    108     1  180.0000771  1.0460000  2
    105    124    126    108     1  0.0000000  0.7531200  3
    105    124    126    128     1  0.0000000  0.6508444  3
    102    105    107    108     1  180.0000771  0.4184000  2
    102    105    107    108     1  0.0000000  1.6024720  3
    102    105    124    126     1  180.0000771  0.8368000  1
    102    105    124    126     1  180.0000771  1.0460000  2
    102    105    124    126     1  0.0000000  0.7531200  3
    102    105    124    130     1  0.0000000  0.6508444  3
    101    102    105    107     1  0.0000000  0.6508444  3
    101    102    105    124     1  299.6901286  -1.5060182  1
    101    102    105    124     1  274.1001175  5.1381528  2
    101    102    105    124     1  342.2101465  3.2676873  3
    100     98    101    102     1  0.0000000  1.0460000  3
     99     98    101    102     1  0.0000000  1.0460000  3
     98    101    102    105     1  0.0000000  1.6038667  3
     15     17     16     20     4  180.0000771  4.6024000  2
     24     12     11      9     4  180.0000771  4.1840000  2
     48     50     49     53     4  180.0000771  4.6024000  2
     45     57     44     42     4  180.0000771  4.1840000  2
     81     83     82     86     4  180.0000771  4.6024000  2
     78     90     77     75     4  180.0000771  4.1840000  2
    114    116    115    119     4  180.0000771  4.6024000  2
    111    123    110    108     4  180.0000771  4.1840000  2
     28     27     25     31     1  0.0000000  1.0460000  1
     28     27     25     31     1  0.0000000  0.0000000  3
     28     27     29     30     1  0.0000000  0.6973333  3
     26     25     27     28     1  0.0000000  0.6508444  3
     26     25     27     29     1  0.0000000  1.0460000  1
     26     25     27     29     1  0.0000000  0.0000000  3
     26     25     31     32     1  0.0000000  1.6038667  3
     25     27     29     30     1  0.0000000  1.0460000  1
     25     27     29     30     1  0.0000000  0.6694400  3
     22     21     23     24     1  180.0000771  28.4512000  2
     19     17     16     20     1  180.0000771  10.0416000  2
     18     17     16     20     1  180.0000771  10.0416000  2
     16     20     21     22     1  180.0000771  28.4512000  2
     15     16     17     18     1  180.0000771  10.0416000  2
     15     16     17     19     1  180.0000771  10.0416000  2
     13     12     11     24     1  180.0000771  7.1128000  2
     13     12     14     15     1  180.0000771  41.8400000  2
     11      9     27     28     1  0.0000000  0.6508444  3
     10      9     11     12     1  0.0000000  0.0000000  2
     10      9     11     24     1  0.0000000  0.0000000  2
     10      9     27     25     1  0.0000000  0.6508444  3
     10      9     27     28     1  0.0000000  0.6508444  3
     10      9     27     29     1  0.0000000  0.6508444  3
      9     11     12     13     1  180.0000771  7.1128000  2
      9     27     25     26     1  0.0000000  0.6508444  3
      9     27     29     30     1  0.0000000  1.0460000  1
      9     27     29     30     1  0.0000000  0.6694400  3
      8      6     25     26     1  0.0000000  1.0460000  1
      8      6     25     26     1  0.0000000  0.0000000  3
      8      9     27     28     1  0.0000000  1.0460000  1
      8      9     27     28     1  0.0000000  0.0000000  3
      7      6      8      9     1  0.0000000  1.6038667  3
      7      6     25     26     1  0.0000000  0.6508444  3
      7      6     25     27     1  0.0000000  0.6508444  3
      7      6     25     31     1  0.0000000  1.0460000  1
      7      6     25     31     1  0.0000000  0.0000000  3
      6      8      9     10     1  0.0000000  1.6038667  3
      6     25     27     28     1  0.0000000  0.6508444  3
      5      3      6      7     1  0.0000000  0.6508444  3
      5      3      6      8     1  0.0000000  1.0460000  1
      5      3      6      8     1  0.0000000  0.0000000  3
      5      3      6     25     1  0.0000000  0.6508444  3
      4      3      6      7     1  0.0000000  0.6508444  3
      4      3      6      8     1  0.0000000  1.0460000  1
      4      3      6      8     1  0.0000000  0.0000000  3
      4      3      6     25     1  0.0000000  0.6508444  3
      3      6     25     26     1  0.0000000  0.6508444  3
      2      3      6      7     1  0.0000000  1.0460000  1
      2      3      6      7     1  0.0000000  0.0000000  3
      1      2      3      4     1  0.0000000  0.6973333  3
      1      2      3      5     1  0.0000000  0.6973333  3
      1      2      3      6     1  0.0000000  0.6973333  3
     61     60     58     64     1  0.0000000  1.0460000  1
     61     60     58     64     1  0.0000000  0.0000000  3
     61     60     62     63     1  0.0000000  0.6973333  3
     59     58     60     61     1  0.0000000  0.6508444  3
     59     58     60     62     1  0.0000000  1.0460000  1
     59     58     60     62     1  0.0000000  0.0000000  3
     59     58     64     65     1  0.0000000  1.6038667  3
     58     60     62     63     1  0.0000000  1.0460000  1
     58     60     62     63     1  0.0000000  0.6694400  3
     55     54     56     57     1  180.0000771  28.4512000  2
     52     50     49     53     1  180.0000771  10.0416000  2
     51     50     49     53     1  180.0000771  10.0416000  2
     49     53     54     55     1  180.0000771  28.4512000  2
     48     49     50     51     1  180.0000771  10.0416000  2
     48     49     50     52     1  180.0000771  10.0416000  2
     46     45     44     57     1  180.0000771  7.1128000  2
     46     45     47     48     1  180.0000771  41.8400000  2
     44     42     60     61     1  0.0000000  0.6508444  3
     43     42     44     45     1  0.0000000  0.0000000  2
     43     42     44     57     1  0.0000000  0.0000000  2
     43     42     60     58     1  0.0000000  0.6508444  3
     43     42     60     61     1  0.0000000  0.6508444  3
     43     42     60     62     1  0.0000000  0.6508444  3
     42     44     45     46     1  180.0000771  7.1128000  2
     42     60     58     59     1  0.0000000  0.6508444  3
     42     60     62     63     1  0.0000000  1.0460000  1
     42     60     62     63     1  0.0000000  0.6694400  3
     41     39     58     59     1  0.0000000  1.0460000  1
     41     39     58     59     1  0.0000000  0.0000000  3
     41     42     60     61     1  0.0000000  1.0460000  1
     41     42     60     61     1  0.0000000  0.0000000  3
     40     39     41     42     1  0.0000000  1.6038667  3
     40     39     58     59     1  0.0000000  0.6508444  3
     40     39     58     60     1  0.0000000  0.6508444  3
     40     39     58     64     1  0.0000000  1.0460000  1
     40     39     58     64     1  0.0000000  0.0000000  3
     39     41     42     43     1  0.0000000  1.6038667  3
     39     58     60     61     1  0.0000000  0.6508444  3
     38     36     39     40     1  0.0000000  0.6508444  3
     38     36     39     41     1  0.0000000  1.0460000  1
     38     36     39     41     1  0.0000000  0.0000000  3
     38     36     39     58     1  0.0000000  0.6508444  3
     37     36     39     40     1  0.0000000  0.6508444  3
     37     36     39     41     1  0.0000000  1.0460000  1
     37     36     39     41     1  0.0000000  0.0000000  3
     37     36     39     58     1  0.0000000  0.6508444  3
     36     39     58     59     1  0.0000000  0.6508444  3
     35     36     39     40     1  0.0000000  1.0460000  1
     35     36     39     40     1  0.0000000  0.0000000  3
     32     35     36     37     1  0.0000000  1.6038667  3
     32     35     36     38     1  0.0000000  1.6038667  3
     94     93     91     97     1  0.0000000  1.0460000  1
     94     93     91     97     1  0.0000000  0.0000000  3
     94     93     95     96     1  0.0000000  0.6973333  3
     92     91     93     94     1  0.0000000  0.6508444  3
     92     91     93     95     1  0.0000000  1.0460000  1
     92     91     93     95     1  0.0000000  0.0000000  3
     92     91     97     98     1  0.0000000  1.6038667  3
     91     93     95     96     1  0.0000000  1.0460000  1
     91     93     95     96     1  0.0000000  0.6694400  3
     88     87     89     90     1  180.0000771  28.4512000  2
     85     83     82     86     1  180.0000771  10.0416000  2
     84     83     82     86     1  180.0000771  10.0416000  2
     82     86     87     88     1  180.0000771  28.4512000  2
     81     82     83     84     1  180.0000771  10.0416000  2
     81     82     83     85     1  180.0000771  10.0416000  2
     79     78     77     90     1  180.0000771  7.1128000  2
     79     78     80     81     1  180.0000771  41.8400000  2
     77     75     93     94     1  0.0000000  0.6508444  3
     76     75     77     78     1  0.0000000  0.0000000  2
     76     75     77     90     1  0.0000000  0.0000000  2
     76     75     93     91     1  0.0000000  0.6508444  3
     76     75     93     94     1  0.0000000  0.6508444  3
     76     75     93     95     1  0.0000000  0.6508444  3
     75     77     78     79     1  180.0000771  7.1128000  2
     75     93     91     92     1  0.0000000  0.6508444  3
     75     93     95     96     1  0.0000000  1.0460000  1
     75     93     95     96     1  0.0000000  0.6694400  3
     74     72     91     92     1  0.0000000  1.0460000  1
     74     72     91     92     1  0.0000000  0.0000000  3
     74     75     93     94     1  0.0000000  1.0460000  1
     74     75     93     94     1  0.0000000  0.0000000  3
     73     72     74     75     1  0.0000000  1.6038667  3
     73     72     91     92     1  0.0000000  0.6508444  3
     73     72     91     93     1  0.0000000  0.6508444  3
     73     72     91     97     1  0.0000000  1.0460000  1
     73     72     91     97     1  0.0000000  0.0000000  3
     72     74     75     76     1  0.0000000  1.6038667  3
     72     91     93     94     1  0.0000000  0.6508444  3
     71     69     72     73     1  0.0000000  0.6508444  3
     71     69     72     74     1  0.0000000  1.0460000  1
     71     69     72     74     1  0.0000000  0.0000000  3
     71     69     72     91     1  0.0000000  0.6508444  3
     70     69     72     73     1  0.0000000  0.6508444  3
     70     69     72     74     1  0.0000000  1.0460000  1
     70     69     72     74     1  0.0000000  0.0000000  3
     70     69     72     91     1  0.0000000  0.6508444  3
     69     72     91     92     1  0.0000000  0.6508444  3
     68     69     72     73     1  0.0000000  1.0460000  1
     68     69     72     73     1  0.0000000  0.0000000  3
     65     68     69     70     1  0.0000000  1.6038667  3
     65     68     69     71     1  0.0000000  1.6038667  3
    127    126    124    130     1  0.0000000  1.0460000  1
    127    126    124    130     1  0.0000000  0.0000000  3
    127    126    128    129     1  0.0000000  0.6973333  3
    126    124    130    131     1  0.0000000  1.0460000  1
    126    124    130    131     1  0.0000000  0.6694400  3
    125    124    126    127     1  0.0000000  0.6508444  3
    125    124    126    128     1  0.0000000  1.0460000  1
    125    124    126    128     1  0.0000000  0.0000000  3
    125    124    130    131     1  0.0000000  0.6973333  3
    124    126    128    129     1  0.0000000  1.0460000  1
    124    126    128    129     1  0.0000000  0.6694400  3
    121    120    122    123     1  180.0000771  28.4512000  2
    118    116    115    119     1  180.0000771  10.0416000  2
    117    116    115    119     1  180.0000771  10.0416000  2
    115    119    120    121     1  180.0000771  28.4512000  2
    114    115    116    117     1  180.0000771  10.0416000  2
    114    115    116    118     1  180.0000771  10.0416000  2
    112    111    110    123     1  180.0000771  7.1128000  2
    112    111    113    114     1  180.0000771  41.8400000  2
    110    108    126    127     1  0.0000000  0.6508444  3
    109    108    110    111     1  0.0000000  0.0000000  2
    109    108    110    123     1  0.0000000  0.0000000  2
    109    108    126    124     1  0.0000000  0.6508444  3
    109    108    126    127     1  0.0000000  0.6508444  3
    109    108    126    128     1  0.0000000  0.6508444  3
    108    110    111    112     1  180.0000771  7.1128000  2
    108    126    124    125     1  0.0000000  0.6508444  3
    108    126    128    129     1  0.0000000  1.0460000  1
    108    126    128    129     1  0.0000000  0.6694400  3
    107    105    124    125     1  0.0000000  1.0460000  1
    107    105    124    125     1  0.0000000  0.0000000  3
    107    108    126    127     1  0.0000000  1.0460000  1
    107    108    126    127     1  0.0000000  0.0000000  3
    106    105    107    108     1  0.0000000  1.6038667  3
    106    105    124    125     1  0.0000000  0.6508444  3
    106    105    124    126     1  0.0000000  0.6508444  3
    106    105    124    130     1  0.0000000  1.0460000  1
    106    105    124    130     1  0.0000000  0.0000000  3
    105    107    108    109     1  0.0000000  1.6038667  3
    105    124    126    127     1  0.0000000  0.6508444  3
    105    124    130    131     1  0.0000000  1.0460000  1
    105    124    130    131     1  0.0000000  0.6694400  3
    104    102    105    106     1  0.0000000  0.6508444  3
    104    102    105    107     1  0.0000000  1.0460000  1
    104    102    105    107     1  0.0000000  0.0000000  3
    104    102    105    124     1  0.0000000  0.6508444  3
    103    102    105    106     1  0.0000000  0.6508444  3
    103    102    105    107     1  0.0000000  1.0460000  1
    103    102    105    107     1  0.0000000  0.0000000  3
    103    102    105    124     1  0.0000000  0.6508444  3
    102    105    124    125     1  0.0000000  0.6508444  3
    101    102    105    106     1  0.0000000  1.0460000  1
    101    102    105    106     1  0.0000000  0.0000000  3
     98    101    102    103     1  0.0000000  1.6038667  3
     98    101    102    104     1  0.0000000  1.6038667  3
     20     23     21     22     4  180.0000771  4.6024000  2
     16     18     17     19     4  180.0000771  4.1840000  2
     11     14     12     13     4  180.0000771  4.6024000  2
     53     56     54     55     4  180.0000771  4.6024000  2
     49     51     50     52     4  180.0000771  4.1840000  2
     44     47     45     46     4  180.0000771  4.6024000  2
     86     89     87     88     4  180.0000771  4.6024000  2
     82     84     83     85     4  180.0000771  4.1840000  2
     77     80     78     79     4  180.0000771  4.6024000  2
    119    122    120    121     4  180.0000771  4.6024000  2
    115    117    116    118     4  180.0000771  4.1840000  2
    110    113    111    112     4  180.0000771  4.6024000  2


[ moleculetype ]
; Name            nrexcl
Na+          3

[ atoms ]
;   nr       type  resnr residue  atom   cgnr    charge       mass  typeB    chargeB      massB
; residue    1 Na+ rtp Na+ q 1.0
    1        Na+      1    Na+    Na+      1 1.00000000  22.990000   ; qtot 1.000000


[ moleculetype ]
; Name            nrexcl
Cl-          3

[ atoms ]
;   nr       type  resnr residue  atom   cgnr    charge       mass  typeB    chargeB      massB
; residue    1 Cl- rtp Cl- q -1.0
    1        Cl-      1    Cl-    Cl-      1 -1.00000000  35.450000   ; qtot -1.000000


[ moleculetype ]
; Name            nrexcl
WAT          3

[ atoms ]
;   nr       type  resnr residue  atom   cgnr    charge       mass  typeB    chargeB      massB
; residue    1 WAT rtp WAT q 0.0
    1         OW      1    WAT      O      1 0.00000000  16.000000   ; qtot 0.000000
    2         HW      1    WAT     H1      2 0.52422000   1.008000   ; qtot 0.524220
    3         HW      1    WAT     H2      3 0.52422000   1.008000   ; qtot 1.048440
    4         EP      1    WAT    EPW      4 -1.04844000   0.000000   ; qtot 0.000000

#ifdef FLEXIBLE

[ bonds ]
;    ai     aj funct         c0         c1         c2         c3
      2      1     1   0.09572 462750.400000
      3      1     1   0.09572 462750.400000
      3      2     1   0.15136 462750.400000


#else

[ settles ]
; i     funct   doh     dhh
1     1   0.09572000   0.15136000

#endif

[ virtual_sites3 ]
; Site  from                   funct
4     1    2    3    1      0.131894  0.131894

[ exclusions ]
1  2  3  4
2  1  3  4
3  1  2  4
4  1  2  3

[ system ]
; Name
Generic title

[ molecules ]
; Compound       #mols
system1              1
Na+                  8
Cl-                  5
WAT               1965
